+ 5.336859 2 3 tcp 40 ------- 0 2.1 3.0 0 0
- 5.336859 2 3 tcp 40 ------- 0 2.1 3.0 0 0
r 5.338072 2 3 tcp 40 ------- 0 2.1 3.0 0 0
+ 5.338072 3 2 ack 40 ------- 0 3.0 2.1 0 1
- 5.338072 3 2 ack 40 ------- 0 3.0 2.1 0 1
r 5.339285 3 2 ack 40 ------- 0 3.0 2.1 0 1
+ 5.339285 2 3 tcp 40 ------- 0 2.1 3.0 1 2
- 5.339285 2 3 tcp 40 ------- 0 2.1 3.0 1 2
+ 5.339285 2 3 tcp 40 ------- 0 2.1 3.0 1 3
+ 5.339285 2 3 tcp 85 ------- 0 2.1 3.0 1 4
- 5.339499 2 3 tcp 40 ------- 0 2.1 3.0 1 3
- 5.339712 2 3 tcp 85 ------- 0 2.1 3.0 1 4
r 5.340499 2 3 tcp 40 ------- 0 2.1 3.0 1 2
+ 5.340499 3 2 ack 40 ------- 0 3.0 2.1 1 5
- 5.340499 3 2 ack 40 ------- 0 3.0 2.1 1 5
r 5.340712 2 3 tcp 40 ------- 0 2.1 3.0 1 3
r 5.341165 2 3 tcp 85 ------- 0 2.1 3.0 1 4
r 5.341712 3 2 ack 40 ------- 0 3.0 2.1 1 5
+ 5.341712 2 3 tcp 40 ------- 0 2.1 3.0 46 6
- 5.341712 2 3 tcp 40 ------- 0 2.1 3.0 46 6
r 5.342925 2 3 tcp 40 ------- 0 2.1 3.0 46 6
+ 5.539285 2 3 tcp 85 ------- 0 2.1 3.0 1 7
- 5.539285 2 3 tcp 85 ------- 0 2.1 3.0 1 7
r 5.540739 2 3 tcp 85 ------- 0 2.1 3.0 1 7
+ 5.540739 3 2 ack 40 ------- 0 3.0 2.1 2 8
- 5.540739 3 2 ack 40 ------- 0 3.0 2.1 2 8
r 5.541952 3 2 ack 40 ------- 0 3.0 2.1 2 8
+ 5.541952 2 3 tcp 40 ------- 0 2.1 3.0 46 9
- 5.541952 2 3 tcp 40 ------- 0 2.1 3.0 46 9
r 5.543165 2 3 tcp 40 ------- 0 2.1 3.0 46 9
+ 5.543165 3 2 ack 40 ------- 0 3.0 2.1 2 10
- 5.543165 3 2 ack 40 ------- 0 3.0 2.1 2 10
r 5.544379 3 2 ack 40 ------- 0 3.0 2.1 2 10
+ 5.783537 0 4 tcp 40 ------- 0 0.1 4.0 0 11
- 5.783537 0 4 tcp 40 ------- 0 0.1 4.0 0 11
r 5.78475 0 4 tcp 40 ------- 0 0.1 4.0 0 11
+ 5.78475 4 0 ack 40 ------- 0 4.0 0.1 0 12
- 5.78475 4 0 ack 40 ------- 0 4.0 0.1 0 12
r 5.785964 4 0 ack 40 ------- 0 4.0 0.1 0 12
+ 5.785964 0 4 tcp 40 ------- 0 0.1 4.0 1 13
- 5.785964 0 4 tcp 40 ------- 0 0.1 4.0 1 13
+ 5.785964 0 4 tcp 40 ------- 0 0.1 4.0 1 14
+ 5.785964 0 4 tcp 85 ------- 0 0.1 4.0 1 15
- 5.786177 0 4 tcp 40 ------- 0 0.1 4.0 1 14
- 5.78639 0 4 tcp 85 ------- 0 0.1 4.0 1 15
r 5.787177 0 4 tcp 40 ------- 0 0.1 4.0 1 13
+ 5.787177 4 0 ack 40 ------- 0 4.0 0.1 1 16
- 5.787177 4 0 ack 40 ------- 0 4.0 0.1 1 16
r 5.78739 0 4 tcp 40 ------- 0 0.1 4.0 1 14
r 5.787844 0 4 tcp 85 ------- 0 0.1 4.0 1 15
r 5.78839 4 0 ack 40 ------- 0 4.0 0.1 1 16
+ 5.78839 0 4 tcp 40 ------- 0 0.1 4.0 46 17
- 5.78839 0 4 tcp 40 ------- 0 0.1 4.0 46 17
r 5.789604 0 4 tcp 40 ------- 0 0.1 4.0 46 17
+ 5.917812 4 0 tcp 40 ------- 0 4.2 0.0 0 18
- 5.917812 4 0 tcp 40 ------- 0 4.2 0.0 0 18
r 5.919025 4 0 tcp 40 ------- 0 4.2 0.0 0 18
+ 5.919025 0 4 ack 40 ------- 0 0.0 4.2 0 19
- 5.919025 0 4 ack 40 ------- 0 0.0 4.2 0 19
r 5.920239 0 4 ack 40 ------- 0 0.0 4.2 0 19
+ 5.920239 4 0 tcp 40 ------- 0 4.2 0.0 1 20
- 5.920239 4 0 tcp 40 ------- 0 4.2 0.0 1 20
+ 5.920239 4 0 tcp 40 ------- 0 4.2 0.0 1 21
+ 5.920239 4 0 tcp 85 ------- 0 4.2 0.0 1 22
- 5.920452 4 0 tcp 40 ------- 0 4.2 0.0 1 21
- 5.920665 4 0 tcp 85 ------- 0 4.2 0.0 1 22
r 5.921452 4 0 tcp 40 ------- 0 4.2 0.0 1 20
r 5.921665 4 0 tcp 40 ------- 0 4.2 0.0 1 21
r 5.922119 4 0 tcp 85 ------- 0 4.2 0.0 1 22
+ 5.922119 0 4 ack 85 ------- 0 0.0 4.2 1 23
- 5.922119 0 4 ack 85 ------- 0 0.0 4.2 1 23
r 5.923572 0 4 ack 85 ------- 0 0.0 4.2 1 23
+ 5.923572 4 0 tcp 59 ------- 0 4.2 0.0 46 24
- 5.923572 4 0 tcp 59 ------- 0 4.2 0.0 46 24
r 5.924887 4 0 tcp 59 ------- 0 4.2 0.0 46 24
+ 5.924887 0 4 ack 59 ------- 0 0.0 4.2 46 25
- 5.924887 0 4 ack 59 ------- 0 0.0 4.2 46 25
r 5.926201 0 4 ack 59 ------- 0 0.0 4.2 46 25
+ 5.926201 4 0 tcp 59 ------- 0 4.2 0.0 65 26
- 5.926201 4 0 tcp 59 ------- 0 4.2 0.0 65 26
r 5.927516 4 0 tcp 59 ------- 0 4.2 0.0 65 26
+ 5.927516 0 4 ack 59 ------- 0 0.0 4.2 65 27
- 5.927516 0 4 ack 59 ------- 0 0.0 4.2 65 27
r 5.928831 0 4 ack 59 ------- 0 0.0 4.2 65 27
+ 5.985964 0 4 tcp 85 ------- 0 0.1 4.0 1 28
- 5.985964 0 4 tcp 85 ------- 0 0.1 4.0 1 28
r 5.987417 0 4 tcp 85 ------- 0 0.1 4.0 1 28
+ 5.987417 4 0 ack 40 ------- 0 4.0 0.1 2 29
- 5.987417 4 0 ack 40 ------- 0 4.0 0.1 2 29
r 5.98863 4 0 ack 40 ------- 0 4.0 0.1 2 29
+ 5.98863 0 4 tcp 40 ------- 0 0.1 4.0 46 30
- 5.98863 0 4 tcp 40 ------- 0 0.1 4.0 46 30
r 5.989844 0 4 tcp 40 ------- 0 0.1 4.0 46 30
+ 5.989844 4 0 ack 40 ------- 0 4.0 0.1 2 31
- 5.989844 4 0 ack 40 ------- 0 4.0 0.1 2 31
r 5.991057 4 0 ack 40 ------- 0 4.0 0.1 2 31
+ 6 4 0 tcp 40 ------- 0 4.2 0.0 84 32
- 6 4 0 tcp 40 ------- 0 4.2 0.0 84 32
r 6.001213 4 0 tcp 40 ------- 0 4.2 0.0 84 32
+ 6.121552 1 3 tcp 40 ------- 0 1.1 3.1 0 33
- 6.121552 1 3 tcp 40 ------- 0 1.1 3.1 0 33
r 6.122765 1 3 tcp 40 ------- 0 1.1 3.1 0 33
+ 6.122765 3 1 ack 40 ------- 0 3.1 1.1 0 34
- 6.122765 3 1 ack 40 ------- 0 3.1 1.1 0 34
r 6.123978 3 1 ack 40 ------- 0 3.1 1.1 0 34
+ 6.123978 1 3 tcp 40 ------- 0 1.1 3.1 1 35
- 6.123978 1 3 tcp 40 ------- 0 1.1 3.1 1 35
+ 6.123978 1 3 tcp 40 ------- 0 1.1 3.1 1 36
+ 6.123978 1 3 tcp 85 ------- 0 1.1 3.1 1 37
- 6.124192 1 3 tcp 40 ------- 0 1.1 3.1 1 36
- 6.124405 1 3 tcp 85 ------- 0 1.1 3.1 1 37
r 6.125192 1 3 tcp 40 ------- 0 1.1 3.1 1 35
+ 6.125192 3 1 ack 40 ------- 0 3.1 1.1 1 38
- 6.125192 3 1 ack 40 ------- 0 3.1 1.1 1 38
r 6.125405 1 3 tcp 40 ------- 0 1.1 3.1 1 36
r 6.125858 1 3 tcp 85 ------- 0 1.1 3.1 1 37
r 6.126405 3 1 ack 40 ------- 0 3.1 1.1 1 38
+ 6.126405 1 3 tcp 40 ------- 0 1.1 3.1 46 39
- 6.126405 1 3 tcp 40 ------- 0 1.1 3.1 46 39
r 6.127618 1 3 tcp 40 ------- 0 1.1 3.1 46 39
+ 6.203783 3 1 tcp 40 ------- 0 3.3 1.0 0 40
- 6.203783 3 1 tcp 40 ------- 0 3.3 1.0 0 40
r 6.204996 3 1 tcp 40 ------- 0 3.3 1.0 0 40
+ 6.204996 1 3 ack 40 ------- 0 1.0 3.3 0 41
- 6.204996 1 3 ack 40 ------- 0 1.0 3.3 0 41
r 6.206209 1 3 ack 40 ------- 0 1.0 3.3 0 41
+ 6.206209 3 1 tcp 40 ------- 0 3.3 1.0 1 42
- 6.206209 3 1 tcp 40 ------- 0 3.3 1.0 1 42
+ 6.206209 3 1 tcp 40 ------- 0 3.3 1.0 1 43
+ 6.206209 3 1 tcp 85 ------- 0 3.3 1.0 1 44
- 6.206423 3 1 tcp 40 ------- 0 3.3 1.0 1 43
- 6.206636 3 1 tcp 85 ------- 0 3.3 1.0 1 44
r 6.207423 3 1 tcp 40 ------- 0 3.3 1.0 1 42
r 6.207636 3 1 tcp 40 ------- 0 3.3 1.0 1 43
r 6.208089 3 1 tcp 85 ------- 0 3.3 1.0 1 44
+ 6.208089 1 3 ack 85 ------- 0 1.0 3.3 1 45
- 6.208089 1 3 ack 85 ------- 0 1.0 3.3 1 45
r 6.209543 1 3 ack 85 ------- 0 1.0 3.3 1 45
+ 6.209543 3 1 tcp 59 ------- 0 3.3 1.0 46 46
- 6.209543 3 1 tcp 59 ------- 0 3.3 1.0 46 46
r 6.210857 3 1 tcp 59 ------- 0 3.3 1.0 46 46
+ 6.210857 1 3 ack 59 ------- 0 1.0 3.3 46 47
- 6.210857 1 3 ack 59 ------- 0 1.0 3.3 46 47
r 6.212172 1 3 ack 59 ------- 0 1.0 3.3 46 47
+ 6.212172 3 1 tcp 59 ------- 0 3.3 1.0 65 48
- 6.212172 3 1 tcp 59 ------- 0 3.3 1.0 65 48
r 6.213487 3 1 tcp 59 ------- 0 3.3 1.0 65 48
+ 6.213487 1 3 ack 59 ------- 0 1.0 3.3 65 49
- 6.213487 1 3 ack 59 ------- 0 1.0 3.3 65 49
r 6.214801 1 3 ack 59 ------- 0 1.0 3.3 65 49
+ 6.3 3 1 tcp 40 ------- 0 3.3 1.0 84 50
- 6.3 3 1 tcp 40 ------- 0 3.3 1.0 84 50
r 6.301213 3 1 tcp 40 ------- 0 3.3 1.0 84 50
+ 6.323978 1 3 tcp 85 ------- 0 1.1 3.1 1 51
- 6.323978 1 3 tcp 85 ------- 0 1.1 3.1 1 51
r 6.325432 1 3 tcp 85 ------- 0 1.1 3.1 1 51
+ 6.325432 3 1 ack 40 ------- 0 3.1 1.1 2 52
- 6.325432 3 1 ack 40 ------- 0 3.1 1.1 2 52
r 6.326645 3 1 ack 40 ------- 0 3.1 1.1 2 52
+ 6.326645 1 3 tcp 40 ------- 0 1.1 3.1 46 53
- 6.326645 1 3 tcp 40 ------- 0 1.1 3.1 46 53
r 6.327858 1 3 tcp 40 ------- 0 1.1 3.1 46 53
+ 6.327858 3 1 ack 40 ------- 0 3.1 1.1 2 54
- 6.327858 3 1 ack 40 ------- 0 3.1 1.1 2 54
r 6.329072 3 1 ack 40 ------- 0 3.1 1.1 2 54
+ 6.359338 3 2 tcp 40 ------- 0 3.4 2.0 0 55
- 6.359338 3 2 tcp 40 ------- 0 3.4 2.0 0 55
r 6.360551 3 2 tcp 40 ------- 0 3.4 2.0 0 55
+ 6.360551 2 3 ack 40 ------- 0 2.0 3.4 0 56
- 6.360551 2 3 ack 40 ------- 0 2.0 3.4 0 56
r 6.361765 2 3 ack 40 ------- 0 2.0 3.4 0 56
+ 6.361765 3 2 tcp 40 ------- 0 3.4 2.0 1 57
- 6.361765 3 2 tcp 40 ------- 0 3.4 2.0 1 57
+ 6.361765 3 2 tcp 40 ------- 0 3.4 2.0 1 58
+ 6.361765 3 2 tcp 85 ------- 0 3.4 2.0 1 59
- 6.361978 3 2 tcp 40 ------- 0 3.4 2.0 1 58
- 6.362191 3 2 tcp 85 ------- 0 3.4 2.0 1 59
r 6.362978 3 2 tcp 40 ------- 0 3.4 2.0 1 57
r 6.363191 3 2 tcp 40 ------- 0 3.4 2.0 1 58
r 6.363645 3 2 tcp 85 ------- 0 3.4 2.0 1 59
+ 6.363645 2 3 ack 85 ------- 0 2.0 3.4 1 60
- 6.363645 2 3 ack 85 ------- 0 2.0 3.4 1 60
r 6.365098 2 3 ack 85 ------- 0 2.0 3.4 1 60
+ 6.365098 3 2 tcp 59 ------- 0 3.4 2.0 46 61
- 6.365098 3 2 tcp 59 ------- 0 3.4 2.0 46 61
r 6.366413 3 2 tcp 59 ------- 0 3.4 2.0 46 61
+ 6.366413 2 3 ack 59 ------- 0 2.0 3.4 46 62
- 6.366413 2 3 ack 59 ------- 0 2.0 3.4 46 62
r 6.367727 2 3 ack 59 ------- 0 2.0 3.4 46 62
+ 6.367727 3 2 tcp 59 ------- 0 3.4 2.0 65 63
- 6.367727 3 2 tcp 59 ------- 0 3.4 2.0 65 63
r 6.369042 3 2 tcp 59 ------- 0 3.4 2.0 65 63
+ 6.369042 2 3 ack 59 ------- 0 2.0 3.4 65 64
- 6.369042 2 3 ack 59 ------- 0 2.0 3.4 65 64
r 6.370357 2 3 ack 59 ------- 0 2.0 3.4 65 64
+ 6.4 3 2 tcp 40 ------- 0 3.4 2.0 84 65
- 6.4 3 2 tcp 40 ------- 0 3.4 2.0 84 65
r 6.401213 3 2 tcp 40 ------- 0 3.4 2.0 84 65
+ 6.578107 2 1 tcp 40 ------- 0 2.3 1.2 0 66
- 6.578107 2 1 tcp 40 ------- 0 2.3 1.2 0 66
r 6.579321 2 1 tcp 40 ------- 0 2.3 1.2 0 66
+ 6.579321 1 2 ack 40 ------- 0 1.2 2.3 0 67
- 6.579321 1 2 ack 40 ------- 0 1.2 2.3 0 67
r 6.580534 1 2 ack 40 ------- 0 1.2 2.3 0 67
+ 6.580534 2 1 tcp 40 ------- 0 2.3 1.2 1 68
- 6.580534 2 1 tcp 40 ------- 0 2.3 1.2 1 68
+ 6.580534 2 1 tcp 40 ------- 0 2.3 1.2 1 69
+ 6.580534 2 1 tcp 85 ------- 0 2.3 1.2 1 70
- 6.580747 2 1 tcp 40 ------- 0 2.3 1.2 1 69
- 6.580961 2 1 tcp 85 ------- 0 2.3 1.2 1 70
r 6.581747 2 1 tcp 40 ------- 0 2.3 1.2 1 68
+ 6.581747 1 2 ack 40 ------- 0 1.2 2.3 1 71
- 6.581747 1 2 ack 40 ------- 0 1.2 2.3 1 71
r 6.581961 2 1 tcp 40 ------- 0 2.3 1.2 1 69
r 6.582414 2 1 tcp 85 ------- 0 2.3 1.2 1 70
r 6.582961 1 2 ack 40 ------- 0 1.2 2.3 1 71
+ 6.582961 2 1 tcp 40 ------- 0 2.3 1.2 46 72
- 6.582961 2 1 tcp 40 ------- 0 2.3 1.2 46 72
r 6.584174 2 1 tcp 40 ------- 0 2.3 1.2 46 72
+ 6.780534 2 1 tcp 85 ------- 0 2.3 1.2 1 73
- 6.780534 2 1 tcp 85 ------- 0 2.3 1.2 1 73
r 6.781987 2 1 tcp 85 ------- 0 2.3 1.2 1 73
+ 6.781987 1 2 ack 40 ------- 0 1.2 2.3 2 74
- 6.781987 1 2 ack 40 ------- 0 1.2 2.3 2 74
r 6.783201 1 2 ack 40 ------- 0 1.2 2.3 2 74
+ 6.783201 2 1 tcp 40 ------- 0 2.3 1.2 46 75
- 6.783201 2 1 tcp 40 ------- 0 2.3 1.2 46 75
r 6.784414 2 1 tcp 40 ------- 0 2.3 1.2 46 75
+ 6.784414 1 2 ack 40 ------- 0 1.2 2.3 2 76
- 6.784414 1 2 ack 40 ------- 0 1.2 2.3 2 76
r 6.785627 1 2 ack 40 ------- 0 1.2 2.3 2 76
+ 6.807026 1 2 tcp 40 ------- 0 1.4 2.2 0 77
- 6.807026 1 2 tcp 40 ------- 0 1.4 2.2 0 77
r 6.808239 1 2 tcp 40 ------- 0 1.4 2.2 0 77
+ 6.808239 2 1 ack 40 ------- 0 2.2 1.4 0 78
- 6.808239 2 1 ack 40 ------- 0 2.2 1.4 0 78
r 6.809453 2 1 ack 40 ------- 0 2.2 1.4 0 78
+ 6.809453 1 2 tcp 40 ------- 0 1.4 2.2 1 79
- 6.809453 1 2 tcp 40 ------- 0 1.4 2.2 1 79
+ 6.809453 1 2 tcp 40 ------- 0 1.4 2.2 1 80
+ 6.809453 1 2 tcp 85 ------- 0 1.4 2.2 1 81
- 6.809666 1 2 tcp 40 ------- 0 1.4 2.2 1 80
- 6.809879 1 2 tcp 85 ------- 0 1.4 2.2 1 81
r 6.810666 1 2 tcp 40 ------- 0 1.4 2.2 1 79
r 6.810879 1 2 tcp 40 ------- 0 1.4 2.2 1 80
r 6.811333 1 2 tcp 85 ------- 0 1.4 2.2 1 81
+ 6.811333 2 1 ack 85 ------- 0 2.2 1.4 1 82
- 6.811333 2 1 ack 85 ------- 0 2.2 1.4 1 82
r 6.812786 2 1 ack 85 ------- 0 2.2 1.4 1 82
+ 6.812786 1 2 tcp 59 ------- 0 1.4 2.2 46 83
- 6.812786 1 2 tcp 59 ------- 0 1.4 2.2 46 83
r 6.814101 1 2 tcp 59 ------- 0 1.4 2.2 46 83
+ 6.814101 2 1 ack 59 ------- 0 2.2 1.4 46 84
- 6.814101 2 1 ack 59 ------- 0 2.2 1.4 46 84
r 6.815415 2 1 ack 59 ------- 0 2.2 1.4 46 84
+ 6.815415 1 2 tcp 59 ------- 0 1.4 2.2 65 85
- 6.815415 1 2 tcp 59 ------- 0 1.4 2.2 65 85
r 6.81673 1 2 tcp 59 ------- 0 1.4 2.2 65 85
+ 6.81673 2 1 ack 59 ------- 0 2.2 1.4 65 86
- 6.81673 2 1 ack 59 ------- 0 2.2 1.4 65 86
r 6.818045 2 1 ack 59 ------- 0 2.2 1.4 65 86
+ 6.9 1 2 tcp 40 ------- 0 1.4 2.2 84 87
- 6.9 1 2 tcp 40 ------- 0 1.4 2.2 84 87
r 6.901213 1 2 tcp 40 ------- 0 1.4 2.2 84 87
+ 6.911146 4 3 tcp 40 ------- 0 4.3 3.2 0 88
- 6.911146 4 3 tcp 40 ------- 0 4.3 3.2 0 88
r 6.912359 4 3 tcp 40 ------- 0 4.3 3.2 0 88
+ 6.912359 3 4 ack 40 ------- 0 3.2 4.3 0 89
- 6.912359 3 4 ack 40 ------- 0 3.2 4.3 0 89
r 6.913573 3 4 ack 40 ------- 0 3.2 4.3 0 89
+ 6.913573 4 3 tcp 40 ------- 0 4.3 3.2 1 90
- 6.913573 4 3 tcp 40 ------- 0 4.3 3.2 1 90
+ 6.913573 4 3 tcp 40 ------- 0 4.3 3.2 1 91
+ 6.913573 4 3 tcp 85 ------- 0 4.3 3.2 1 92
- 6.913786 4 3 tcp 40 ------- 0 4.3 3.2 1 91
- 6.913999 4 3 tcp 85 ------- 0 4.3 3.2 1 92
r 6.914786 4 3 tcp 40 ------- 0 4.3 3.2 1 90
+ 6.914786 3 4 ack 40 ------- 0 3.2 4.3 1 93
- 6.914786 3 4 ack 40 ------- 0 3.2 4.3 1 93
r 6.914999 4 3 tcp 40 ------- 0 4.3 3.2 1 91
r 6.915453 4 3 tcp 85 ------- 0 4.3 3.2 1 92
r 6.915999 3 4 ack 40 ------- 0 3.2 4.3 1 93
+ 6.915999 4 3 tcp 40 ------- 0 4.3 3.2 46 94
- 6.915999 4 3 tcp 40 ------- 0 4.3 3.2 46 94
r 6.917213 4 3 tcp 40 ------- 0 4.3 3.2 46 94
+ 7.113573 4 3 tcp 85 ------- 0 4.3 3.2 1 95
- 7.113573 4 3 tcp 85 ------- 0 4.3 3.2 1 95
r 7.115026 4 3 tcp 85 ------- 0 4.3 3.2 1 95
+ 7.115026 3 4 ack 40 ------- 0 3.2 4.3 2 96
- 7.115026 3 4 ack 40 ------- 0 3.2 4.3 2 96
r 7.116239 3 4 ack 40 ------- 0 3.2 4.3 2 96
+ 7.116239 4 3 tcp 40 ------- 0 4.3 3.2 46 97
- 7.116239 4 3 tcp 40 ------- 0 4.3 3.2 46 97
r 7.117453 4 3 tcp 40 ------- 0 4.3 3.2 46 97
+ 7.117453 3 4 ack 40 ------- 0 3.2 4.3 2 98
- 7.117453 3 4 ack 40 ------- 0 3.2 4.3 2 98
r 7.118666 3 4 ack 40 ------- 0 3.2 4.3 2 98
+ 7.650733 0 1 tcp 40 ------- 0 0.3 1.3 0 99
- 7.650733 0 1 tcp 40 ------- 0 0.3 1.3 0 99
r 7.651947 0 1 tcp 40 ------- 0 0.3 1.3 0 99
+ 7.651947 1 0 ack 40 ------- 0 1.3 0.3 0 100
- 7.651947 1 0 ack 40 ------- 0 1.3 0.3 0 100
r 7.65316 1 0 ack 40 ------- 0 1.3 0.3 0 100
+ 7.65316 0 1 tcp 40 ------- 0 0.3 1.3 1 101
- 7.65316 0 1 tcp 40 ------- 0 0.3 1.3 1 101
+ 7.65316 0 1 tcp 40 ------- 0 0.3 1.3 1 102
+ 7.65316 0 1 tcp 85 ------- 0 0.3 1.3 1 103
- 7.653373 0 1 tcp 40 ------- 0 0.3 1.3 1 102
- 7.653587 0 1 tcp 85 ------- 0 0.3 1.3 1 103
r 7.654373 0 1 tcp 40 ------- 0 0.3 1.3 1 101
+ 7.654373 1 0 ack 40 ------- 0 1.3 0.3 1 104
- 7.654373 1 0 ack 40 ------- 0 1.3 0.3 1 104
r 7.654587 0 1 tcp 40 ------- 0 0.3 1.3 1 102
r 7.65504 0 1 tcp 85 ------- 0 0.3 1.3 1 103
r 7.655587 1 0 ack 40 ------- 0 1.3 0.3 1 104
+ 7.655587 0 1 tcp 40 ------- 0 0.3 1.3 46 105
- 7.655587 0 1 tcp 40 ------- 0 0.3 1.3 46 105
r 7.6568 0 1 tcp 40 ------- 0 0.3 1.3 46 105
+ 7.85316 0 1 tcp 85 ------- 0 0.3 1.3 1 106
- 7.85316 0 1 tcp 85 ------- 0 0.3 1.3 1 106
r 7.854613 0 1 tcp 85 ------- 0 0.3 1.3 1 106
+ 7.854613 1 0 ack 40 ------- 0 1.3 0.3 2 107
- 7.854613 1 0 ack 40 ------- 0 1.3 0.3 2 107
r 7.855827 1 0 ack 40 ------- 0 1.3 0.3 2 107
+ 7.855827 0 1 tcp 40 ------- 0 0.3 1.3 46 108
- 7.855827 0 1 tcp 40 ------- 0 0.3 1.3 46 108
r 7.85704 0 1 tcp 40 ------- 0 0.3 1.3 46 108
+ 7.85704 1 0 ack 40 ------- 0 1.3 0.3 2 109
- 7.85704 1 0 ack 40 ------- 0 1.3 0.3 2 109
r 7.858253 1 0 ack 40 ------- 0 1.3 0.3 2 109
+ 7.975127 1 0 tcp 40 ------- 0 1.6 0.2 0 110
- 7.975127 1 0 tcp 40 ------- 0 1.6 0.2 0 110
r 7.97634 1 0 tcp 40 ------- 0 1.6 0.2 0 110
+ 7.97634 0 1 ack 40 ------- 0 0.2 1.6 0 111
- 7.97634 0 1 ack 40 ------- 0 0.2 1.6 0 111
r 7.977553 0 1 ack 40 ------- 0 0.2 1.6 0 111
+ 7.977553 1 0 tcp 40 ------- 0 1.6 0.2 1 112
- 7.977553 1 0 tcp 40 ------- 0 1.6 0.2 1 112
+ 7.977553 1 0 tcp 40 ------- 0 1.6 0.2 1 113
+ 7.977553 1 0 tcp 85 ------- 0 1.6 0.2 1 114
- 7.977767 1 0 tcp 40 ------- 0 1.6 0.2 1 113
- 7.97798 1 0 tcp 85 ------- 0 1.6 0.2 1 114
r 7.978767 1 0 tcp 40 ------- 0 1.6 0.2 1 112
r 7.97898 1 0 tcp 40 ------- 0 1.6 0.2 1 113
r 7.979433 1 0 tcp 85 ------- 0 1.6 0.2 1 114
+ 7.979433 0 1 ack 85 ------- 0 0.2 1.6 1 115
- 7.979433 0 1 ack 85 ------- 0 0.2 1.6 1 115
r 7.980887 0 1 ack 85 ------- 0 0.2 1.6 1 115
+ 7.980887 1 0 tcp 59 ------- 0 1.6 0.2 46 116
- 7.980887 1 0 tcp 59 ------- 0 1.6 0.2 46 116
r 7.982201 1 0 tcp 59 ------- 0 1.6 0.2 46 116
+ 7.982201 0 1 ack 59 ------- 0 0.2 1.6 46 117
- 7.982201 0 1 ack 59 ------- 0 0.2 1.6 46 117
r 7.983516 0 1 ack 59 ------- 0 0.2 1.6 46 117
+ 7.983516 1 0 tcp 59 ------- 0 1.6 0.2 65 118
- 7.983516 1 0 tcp 59 ------- 0 1.6 0.2 65 118
r 7.984831 1 0 tcp 59 ------- 0 1.6 0.2 65 118
+ 7.984831 0 1 ack 59 ------- 0 0.2 1.6 65 119
- 7.984831 0 1 ack 59 ------- 0 0.2 1.6 65 119
r 7.986145 0 1 ack 59 ------- 0 0.2 1.6 65 119
+ 8 1 0 tcp 40 ------- 0 1.6 0.2 84 120
- 8 1 0 tcp 40 ------- 0 1.6 0.2 84 120
r 8.001213 1 0 tcp 40 ------- 0 1.6 0.2 84 120
+ 8.031166 3 4 tcp 40 ------- 0 3.6 4.1 0 121
- 8.031166 3 4 tcp 40 ------- 0 3.6 4.1 0 121
r 8.03238 3 4 tcp 40 ------- 0 3.6 4.1 0 121
+ 8.03238 4 3 ack 40 ------- 0 4.1 3.6 0 122
- 8.03238 4 3 ack 40 ------- 0 4.1 3.6 0 122
r 8.033593 4 3 ack 40 ------- 0 4.1 3.6 0 122
+ 8.033593 3 4 tcp 40 ------- 0 3.6 4.1 1 123
- 8.033593 3 4 tcp 40 ------- 0 3.6 4.1 1 123
+ 8.033593 3 4 tcp 40 ------- 0 3.6 4.1 1 124
+ 8.033593 3 4 tcp 85 ------- 0 3.6 4.1 1 125
- 8.033806 3 4 tcp 40 ------- 0 3.6 4.1 1 124
- 8.03402 3 4 tcp 85 ------- 0 3.6 4.1 1 125
r 8.034806 3 4 tcp 40 ------- 0 3.6 4.1 1 123
r 8.03502 3 4 tcp 40 ------- 0 3.6 4.1 1 124
r 8.035473 3 4 tcp 85 ------- 0 3.6 4.1 1 125
+ 8.035473 4 3 ack 85 ------- 0 4.1 3.6 1 126
- 8.035473 4 3 ack 85 ------- 0 4.1 3.6 1 126
r 8.036926 4 3 ack 85 ------- 0 4.1 3.6 1 126
+ 8.036926 3 4 tcp 59 ------- 0 3.6 4.1 46 127
- 8.036926 3 4 tcp 59 ------- 0 3.6 4.1 46 127
r 8.038241 3 4 tcp 59 ------- 0 3.6 4.1 46 127
+ 8.038241 4 3 ack 59 ------- 0 4.1 3.6 46 128
- 8.038241 4 3 ack 59 ------- 0 4.1 3.6 46 128
r 8.039556 4 3 ack 59 ------- 0 4.1 3.6 46 128
+ 8.039556 3 4 tcp 59 ------- 0 3.6 4.1 65 129
- 8.039556 3 4 tcp 59 ------- 0 3.6 4.1 65 129
r 8.04087 3 4 tcp 59 ------- 0 3.6 4.1 65 129
+ 8.04087 4 3 ack 59 ------- 0 4.1 3.6 65 130
- 8.04087 4 3 ack 59 ------- 0 4.1 3.6 65 130
r 8.042185 4 3 ack 59 ------- 0 4.1 3.6 65 130
+ 8.1 3 4 tcp 40 ------- 0 3.6 4.1 84 131
- 8.1 3 4 tcp 40 ------- 0 3.6 4.1 84 131
r 8.101213 3 4 tcp 40 ------- 0 3.6 4.1 84 131
+ 20 4 0 tcp 85 ---A--- 0 4.2 0.0 84 132
- 20 4 0 tcp 85 ---A--- 0 4.2 0.0 84 132
+ 20 4 3 ack 85 ---A--- 0 4.1 3.6 84 133
- 20 4 3 ack 85 ---A--- 0 4.1 3.6 84 133
r 20.001453 4 0 tcp 85 ---A--- 0 4.2 0.0 84 132
r 20.001453 4 3 ack 85 ---A--- 0 4.1 3.6 84 133
+ 20.001453 0 1 ack 87 ---A--- 0 0.2 1.6 84 134
- 20.001453 0 1 ack 87 ---A--- 0 0.2 1.6 84 134
+ 20.001453 3 1 tcp 87 ---A--- 0 3.3 1.0 84 135
- 20.001453 3 1 tcp 87 ---A--- 0 3.3 1.0 84 135
+ 20.001453 3 2 tcp 87 ---A--- 0 3.4 2.0 84 136
- 20.001453 3 2 tcp 87 ---A--- 0 3.4 2.0 84 136
r 20.002917 0 1 ack 87 ---A--- 0 0.2 1.6 84 134
r 20.002917 3 1 tcp 87 ---A--- 0 3.3 1.0 84 135
r 20.002917 3 2 tcp 87 ---A--- 0 3.4 2.0 84 136
+ 20.002917 1 2 tcp 89 ---A--- 0 1.4 2.2 84 137
- 20.002917 1 2 tcp 89 ---A--- 0 1.4 2.2 84 137
+ 20.002917 2 1 ack 89 ---A--- 0 2.2 1.4 84 138
- 20.002917 2 1 ack 89 ---A--- 0 2.2 1.4 84 138
+ 20.002917 1 3 ack 89 ---A--- 0 1.0 3.3 84 139
- 20.002917 1 3 ack 89 ---A--- 0 1.0 3.3 84 139
r 20.004392 1 2 tcp 89 ---A--- 0 1.4 2.2 84 137
r 20.004392 2 1 ack 89 ---A--- 0 2.2 1.4 84 138
r 20.004392 1 3 ack 89 ---A--- 0 1.0 3.3 84 139
+ 20.004392 1 0 tcp 91 ---A--- 0 1.6 0.2 84 140
- 20.004392 1 0 tcp 91 ---A--- 0 1.6 0.2 84 140
+ 20.004392 2 3 ack 91 ---A--- 0 2.0 3.4 84 141
- 20.004392 2 3 ack 91 ---A--- 0 2.0 3.4 84 141
r 20.005877 1 0 tcp 91 ---A--- 0 1.6 0.2 84 140
r 20.005877 2 3 ack 91 ---A--- 0 2.0 3.4 84 141
+ 20.1 0 4 ack 40 ------- 0 0.0 4.2 84 142
- 20.1 0 4 ack 40 ------- 0 0.0 4.2 84 142
+ 20.1 3 1 tcp 40 ------- 0 3.3 1.0 131 143
- 20.1 3 1 tcp 40 ------- 0 3.3 1.0 131 143
+ 20.1 3 2 tcp 40 ------- 0 3.4 2.0 131 144
- 20.1 3 2 tcp 40 ------- 0 3.4 2.0 131 144
+ 20.1 2 1 ack 67 ------- 0 2.2 1.4 133 145
- 20.1 2 1 ack 67 ------- 0 2.2 1.4 133 145
+ 20.1 1 2 tcp 67 ------- 0 1.4 2.2 133 146
- 20.1 1 2 tcp 67 ------- 0 1.4 2.2 133 146
+ 20.1 0 1 ack 40 ------- 0 0.2 1.6 131 147
- 20.1 0 1 ack 40 ------- 0 0.2 1.6 131 147
+ 20.1 3 4 tcp 40 ------- 0 3.6 4.1 84 148
- 20.1 3 4 tcp 40 ------- 0 3.6 4.1 84 148
r 20.101213 0 4 ack 40 ------- 0 0.0 4.2 84 142
r 20.101213 3 1 tcp 40 ------- 0 3.3 1.0 131 143
r 20.101213 3 2 tcp 40 ------- 0 3.4 2.0 131 144
r 20.101213 0 1 ack 40 ------- 0 0.2 1.6 131 147
r 20.101213 3 4 tcp 40 ------- 0 3.6 4.1 84 148
r 20.101357 2 1 ack 67 ------- 0 2.2 1.4 133 145
r 20.101357 1 2 tcp 67 ------- 0 1.4 2.2 133 146
+ 20.101357 1 0 tcp 67 ------- 0 1.6 0.2 135 149
- 20.101357 1 0 tcp 67 ------- 0 1.6 0.2 135 149
+ 20.101357 2 3 ack 67 ------- 0 2.0 3.4 135 150
- 20.101357 2 3 ack 67 ------- 0 2.0 3.4 135 150
r 20.102715 1 0 tcp 67 ------- 0 1.6 0.2 135 149
r 20.102715 2 3 ack 67 ------- 0 2.0 3.4 135 150
+ 20.2 3 2 tcp 40 ------- 0 3.4 2.0 131 151
- 20.2 3 2 tcp 40 ------- 0 3.4 2.0 131 151
+ 20.2 2 1 ack 40 ------- 0 2.2 1.4 160 152
- 20.2 2 1 ack 40 ------- 0 2.2 1.4 160 152
+ 20.2 1 2 tcp 40 ------- 0 1.4 2.2 160 153
- 20.2 1 2 tcp 40 ------- 0 1.4 2.2 160 153
+ 20.2 0 1 ack 40 ------- 0 0.2 1.6 131 154
- 20.2 0 1 ack 40 ------- 0 0.2 1.6 131 154
r 20.201213 3 2 tcp 40 ------- 0 3.4 2.0 131 151
r 20.201213 2 1 ack 40 ------- 0 2.2 1.4 160 152
r 20.201213 1 2 tcp 40 ------- 0 1.4 2.2 160 153
r 20.201213 0 1 ack 40 ------- 0 0.2 1.6 131 154
+ 50.002917 2 1 ack 89 ---A--- 0 2.2 1.4 160 155
- 50.002917 2 1 ack 89 ---A--- 0 2.2 1.4 160 155
+ 50.002917 1 2 tcp 89 ---A--- 0 1.4 2.2 160 156
- 50.002917 1 2 tcp 89 ---A--- 0 1.4 2.2 160 156
+ 50.002917 1 3 ack 89 ---A--- 0 1.0 3.3 133 157
- 50.002917 1 3 ack 89 ---A--- 0 1.0 3.3 133 157
r 50.004392 2 1 ack 89 ---A--- 0 2.2 1.4 160 155
r 50.004392 1 2 tcp 89 ---A--- 0 1.4 2.2 160 156
r 50.004392 1 3 ack 89 ---A--- 0 1.0 3.3 133 157
+ 50.004392 1 0 tcp 91 ---A--- 0 1.6 0.2 162 158
- 50.004392 1 0 tcp 91 ---A--- 0 1.6 0.2 162 158
+ 50.004392 2 3 ack 91 ---A--- 0 2.0 3.4 162 159
- 50.004392 2 3 ack 91 ---A--- 0 2.0 3.4 162 159
r 50.005877 1 0 tcp 91 ---A--- 0 1.6 0.2 162 158
r 50.005877 2 3 ack 91 ---A--- 0 2.0 3.4 162 159
+ 50.1 3 1 tcp 40 ------- 0 3.3 1.0 131 160
- 50.1 3 1 tcp 40 ------- 0 3.3 1.0 131 160
+ 50.1 3 2 tcp 40 ------- 0 3.4 2.0 131 161
- 50.1 3 2 tcp 40 ------- 0 3.4 2.0 131 161
+ 50.1 2 1 ack 67 ------- 0 2.2 1.4 209 162
- 50.1 2 1 ack 67 ------- 0 2.2 1.4 209 162
+ 50.1 1 2 tcp 67 ------- 0 1.4 2.2 209 163
- 50.1 1 2 tcp 67 ------- 0 1.4 2.2 209 163
+ 50.1 0 1 ack 40 ------- 0 0.2 1.6 131 164
- 50.1 0 1 ack 40 ------- 0 0.2 1.6 131 164
r 50.101213 3 1 tcp 40 ------- 0 3.3 1.0 131 160
r 50.101213 3 2 tcp 40 ------- 0 3.4 2.0 131 161
r 50.101213 0 1 ack 40 ------- 0 0.2 1.6 131 164
r 50.101357 2 1 ack 67 ------- 0 2.2 1.4 209 162
r 50.101357 1 2 tcp 67 ------- 0 1.4 2.2 209 163
+ 50.101357 1 0 tcp 67 ------- 0 1.6 0.2 213 165
- 50.101357 1 0 tcp 67 ------- 0 1.6 0.2 213 165
+ 50.101357 2 3 ack 67 ------- 0 2.0 3.4 213 166
- 50.101357 2 3 ack 67 ------- 0 2.0 3.4 213 166
r 50.102715 1 0 tcp 67 ------- 0 1.6 0.2 213 165
r 50.102715 2 3 ack 67 ------- 0 2.0 3.4 213 166
+ 50.2 3 2 tcp 40 ------- 0 3.4 2.0 131 167
- 50.2 3 2 tcp 40 ------- 0 3.4 2.0 131 167
+ 50.2 2 1 ack 40 ------- 0 2.2 1.4 236 168
- 50.2 2 1 ack 40 ------- 0 2.2 1.4 236 168
+ 50.2 1 2 tcp 40 ------- 0 1.4 2.2 236 169
- 50.2 1 2 tcp 40 ------- 0 1.4 2.2 236 169
+ 50.2 0 1 ack 40 ------- 0 0.2 1.6 131 170
- 50.2 0 1 ack 40 ------- 0 0.2 1.6 131 170
r 50.201213 3 2 tcp 40 ------- 0 3.4 2.0 131 167
r 50.201213 2 1 ack 40 ------- 0 2.2 1.4 236 168
r 50.201213 1 2 tcp 40 ------- 0 1.4 2.2 236 169
r 50.201213 0 1 ack 40 ------- 0 0.2 1.6 131 170
+ 60 4 3 ack 40 ------- 0 4.1 3.6 129 171
- 60 4 3 ack 40 ------- 0 4.1 3.6 129 171
r 60.001213 4 3 ack 40 ------- 0 4.1 3.6 129 171
+ 60.001213 3 4 tcp 40 ------- 0 3.6 4.1 84 172
- 60.001213 3 4 tcp 40 ------- 0 3.6 4.1 84 172
+ 60.001213 3 4 tcp 40 ------- 0 3.6 4.1 84 173
+ 60.001213 3 1 tcp 67 ---A--- 0 3.3 1.0 131 174
- 60.001213 3 1 tcp 67 ---A--- 0 3.3 1.0 131 174
+ 60.001213 3 2 tcp 91 ---A--- 0 3.4 2.0 131 175
- 60.001213 3 2 tcp 91 ---A--- 0 3.4 2.0 131 175
- 60.001427 3 4 tcp 40 ------- 0 3.6 4.1 84 173
r 60.002427 3 4 tcp 40 ------- 0 3.6 4.1 84 172
r 60.002571 3 1 tcp 67 ---A--- 0 3.3 1.0 131 174
r 60.00264 3 4 tcp 40 ------- 0 3.6 4.1 84 173
+ 60.00264 4 3 ack 40 ------- 0 4.1 3.6 130 176
- 60.00264 4 3 ack 40 ------- 0 4.1 3.6 130 176
r 60.002699 3 2 tcp 91 ---A--- 0 3.4 2.0 131 175
r 60.003853 4 3 ack 40 ------- 0 4.1 3.6 130 176
+ 60.1 1 3 ack 40 ------- 0 1.0 3.3 182 177
- 60.1 1 3 ack 40 ------- 0 1.0 3.3 182 177
+ 60.1 2 3 ack 40 ------- 0 2.0 3.4 240 178
- 60.1 2 3 ack 40 ------- 0 2.0 3.4 240 178
r 60.101213 1 3 ack 40 ------- 0 1.0 3.3 182 177
r 60.101213 2 3 ack 40 ------- 0 2.0 3.4 240 178
+ 65.922119 0 4 ack 59 ---A--- 0 0.0 4.2 84 179
- 65.922119 0 4 ack 59 ---A--- 0 0.0 4.2 84 179
r 65.923433 0 4 ack 59 ---A--- 0 0.0 4.2 84 179
+ 65.923572 4 0 tcp 59 ---A--- 0 4.2 0.0 129 180
- 65.923572 4 0 tcp 59 ---A--- 0 4.2 0.0 129 180
r 65.924887 4 0 tcp 59 ---A--- 0 4.2 0.0 129 180
+ 66 0 4 ack 40 ------- 0 0.0 4.2 103 181
- 66 0 4 ack 40 ------- 0 0.0 4.2 103 181
r 66.001213 0 4 ack 40 ------- 0 0.0 4.2 103 181
+ 66.208089 1 3 ack 59 ---A--- 0 1.0 3.3 182 182
- 66.208089 1 3 ack 59 ---A--- 0 1.0 3.3 182 182
r 66.209404 1 3 ack 59 ---A--- 0 1.0 3.3 182 182
+ 66.209543 3 1 tcp 59 ---A--- 0 3.3 1.0 158 183
- 66.209543 3 1 tcp 59 ---A--- 0 3.3 1.0 158 183
r 66.210857 3 1 tcp 59 ---A--- 0 3.3 1.0 158 183
+ 66.3 1 3 ack 40 ------- 0 1.0 3.3 201 184
- 66.3 1 3 ack 40 ------- 0 1.0 3.3 201 184
r 66.301213 1 3 ack 40 ------- 0 1.0 3.3 201 184
+ 66.363645 2 3 ack 59 ---A--- 0 2.0 3.4 240 185
- 66.363645 2 3 ack 59 ---A--- 0 2.0 3.4 240 185
r 66.364959 2 3 ack 59 ---A--- 0 2.0 3.4 240 185
+ 66.365098 3 2 tcp 59 ---A--- 0 3.4 2.0 182 186
- 66.365098 3 2 tcp 59 ---A--- 0 3.4 2.0 182 186
r 66.366413 3 2 tcp 59 ---A--- 0 3.4 2.0 182 186
+ 66.4 2 3 ack 40 ------- 0 2.0 3.4 259 187
- 66.4 2 3 ack 40 ------- 0 2.0 3.4 259 187
r 66.401213 2 3 ack 40 ------- 0 2.0 3.4 259 187
+ 66.50863 3 4 tcp 40 ------- 0 3.7 4.4 0 188
- 66.50863 3 4 tcp 40 ------- 0 3.7 4.4 0 188
r 66.509843 3 4 tcp 40 ------- 0 3.7 4.4 0 188
+ 66.509843 4 3 ack 40 ------- 0 4.4 3.7 0 189
- 66.509843 4 3 ack 40 ------- 0 4.4 3.7 0 189
r 66.511056 4 3 ack 40 ------- 0 4.4 3.7 0 189
+ 66.511056 3 4 tcp 40 ------- 0 3.7 4.4 1 190
- 66.511056 3 4 tcp 40 ------- 0 3.7 4.4 1 190
+ 66.511056 3 4 tcp 40 ------- 0 3.7 4.4 1 191
+ 66.511056 3 4 tcp 85 ------- 0 3.7 4.4 1 192
- 66.51127 3 4 tcp 40 ------- 0 3.7 4.4 1 191
- 66.511483 3 4 tcp 85 ------- 0 3.7 4.4 1 192
r 66.51227 3 4 tcp 40 ------- 0 3.7 4.4 1 190
+ 66.51227 4 3 ack 40 ------- 0 4.4 3.7 1 193
- 66.51227 4 3 ack 40 ------- 0 4.4 3.7 1 193
r 66.512483 3 4 tcp 40 ------- 0 3.7 4.4 1 191
r 66.512936 3 4 tcp 85 ------- 0 3.7 4.4 1 192
r 66.513483 4 3 ack 40 ------- 0 4.4 3.7 1 193
+ 66.513483 3 4 tcp 40 ------- 0 3.7 4.4 46 194
- 66.513483 3 4 tcp 40 ------- 0 3.7 4.4 46 194
r 66.514696 3 4 tcp 40 ------- 0 3.7 4.4 46 194
+ 66.711056 3 4 tcp 85 ------- 0 3.7 4.4 1 195
- 66.711056 3 4 tcp 85 ------- 0 3.7 4.4 1 195
r 66.71251 3 4 tcp 85 ------- 0 3.7 4.4 1 195
+ 66.71251 4 3 ack 40 ------- 0 4.4 3.7 2 196
- 66.71251 4 3 ack 40 ------- 0 4.4 3.7 2 196
r 66.713723 4 3 ack 40 ------- 0 4.4 3.7 2 196
+ 66.713723 3 4 tcp 40 ------- 0 3.7 4.4 46 197
- 66.713723 3 4 tcp 40 ------- 0 3.7 4.4 46 197
r 66.714936 3 4 tcp 40 ------- 0 3.7 4.4 46 197
+ 66.714936 4 3 ack 40 ------- 0 4.4 3.7 2 198
- 66.714936 4 3 ack 40 ------- 0 4.4 3.7 2 198
r 66.71615 4 3 ack 40 ------- 0 4.4 3.7 2 198
+ 66.811333 2 1 ack 59 ---A--- 0 2.2 1.4 236 199
- 66.811333 2 1 ack 59 ---A--- 0 2.2 1.4 236 199
r 66.812647 2 1 ack 59 ---A--- 0 2.2 1.4 236 199
+ 66.812786 1 2 tcp 59 ---A--- 0 1.4 2.2 236 200
- 66.812786 1 2 tcp 59 ---A--- 0 1.4 2.2 236 200
r 66.814101 1 2 tcp 59 ---A--- 0 1.4 2.2 236 200
+ 66.9 2 1 ack 40 ------- 0 2.2 1.4 255 201
- 66.9 2 1 ack 40 ------- 0 2.2 1.4 255 201
r 66.901213 2 1 ack 40 ------- 0 2.2 1.4 255 201
+ 67.979433 0 1 ack 59 ---A--- 0 0.2 1.6 131 202
- 67.979433 0 1 ack 59 ---A--- 0 0.2 1.6 131 202
r 67.980748 0 1 ack 59 ---A--- 0 0.2 1.6 131 202
+ 67.980887 1 0 tcp 59 ---A--- 0 1.6 0.2 240 203
- 67.980887 1 0 tcp 59 ---A--- 0 1.6 0.2 240 203
r 67.982201 1 0 tcp 59 ---A--- 0 1.6 0.2 240 203
+ 68 0 1 ack 40 ------- 0 0.2 1.6 150 204
- 68 0 1 ack 40 ------- 0 0.2 1.6 150 204
r 68.001213 0 1 ack 40 ------- 0 0.2 1.6 150 204
+ 80.002917 2 1 ack 93 ---A--- 0 2.2 1.4 255 205
- 80.002917 2 1 ack 93 ---A--- 0 2.2 1.4 255 205
+ 80.002917 1 2 tcp 89 ---A--- 0 1.4 2.2 255 206
- 80.002917 1 2 tcp 89 ---A--- 0 1.4 2.2 255 206
+ 80.002917 1 3 ack 89 ---A--- 0 1.0 3.3 201 207
- 80.002917 1 3 ack 89 ---A--- 0 1.0 3.3 201 207
r 80.004392 1 2 tcp 89 ---A--- 0 1.4 2.2 255 206
r 80.004392 1 3 ack 89 ---A--- 0 1.0 3.3 201 207
+ 80.004392 2 3 ack 91 ---A--- 0 2.0 3.4 259 208
- 80.004392 2 3 ack 91 ---A--- 0 2.0 3.4 259 208
r 80.004413 2 1 ack 93 ---A--- 0 2.2 1.4 255 205
r 80.005877 2 3 ack 91 ---A--- 0 2.0 3.4 259 208
+ 80.1 3 1 tcp 40 ------- 0 3.3 1.0 177 209
- 80.1 3 1 tcp 40 ------- 0 3.3 1.0 177 209
+ 80.1 3 2 tcp 40 ------- 0 3.4 2.0 201 210
- 80.1 3 2 tcp 40 ------- 0 3.4 2.0 201 210
+ 80.1 2 1 ack 67 ------- 0 2.2 1.4 308 211
- 80.1 2 1 ack 67 ------- 0 2.2 1.4 308 211
+ 80.1 1 2 tcp 40 ------- 0 1.4 2.2 304 212
- 80.1 1 2 tcp 40 ------- 0 1.4 2.2 304 212
r 80.101213 3 1 tcp 40 ------- 0 3.3 1.0 177 209
r 80.101213 3 2 tcp 40 ------- 0 3.4 2.0 201 210
r 80.101213 1 2 tcp 40 ------- 0 1.4 2.2 304 212
r 80.101357 2 1 ack 67 ------- 0 2.2 1.4 308 211
+ 80.2 1 2 tcp 40 ------- 0 1.4 2.2 304 213
- 80.2 1 2 tcp 40 ------- 0 1.4 2.2 304 213
r 80.201213 1 2 tcp 40 ------- 0 1.4 2.2 304 213
+ 125.922119 0 4 ack 59 ---A--- 0 0.0 4.2 103 214
- 125.922119 0 4 ack 59 ---A--- 0 0.0 4.2 103 214
r 125.923433 0 4 ack 59 ---A--- 0 0.0 4.2 103 214
+ 125.923572 4 0 tcp 59 ---A--- 0 4.2 0.0 148 215
- 125.923572 4 0 tcp 59 ---A--- 0 4.2 0.0 148 215
r 125.924887 4 0 tcp 59 ---A--- 0 4.2 0.0 148 215
+ 126 0 4 ack 40 ------- 0 0.0 4.2 122 216
- 126 0 4 ack 40 ------- 0 0.0 4.2 122 216
r 126.001213 0 4 ack 40 ------- 0 0.0 4.2 122 216
+ 126.208089 1 3 ack 59 ---A--- 0 1.0 3.3 250 217