+ 5.546635 2 1 tcp 40 ------- 0 2.1 1.0 0 0
- 5.546635 2 1 tcp 40 ------- 0 2.1 1.0 0 0
r 5.547848 2 1 tcp 40 ------- 0 2.1 1.0 0 0
+ 5.547848 1 2 ack 40 ------- 0 1.0 2.1 0 1
- 5.547848 1 2 ack 40 ------- 0 1.0 2.1 0 1
r 5.549062 1 2 ack 40 ------- 0 1.0 2.1 0 1
+ 5.549062 2 1 tcp 40 ------- 0 2.1 1.0 1 2
- 5.549062 2 1 tcp 40 ------- 0 2.1 1.0 1 2
+ 5.549062 2 1 tcp 40 ------- 0 2.1 1.0 1 3
+ 5.549062 2 1 tcp 85 ------- 0 2.1 1.0 1 4
- 5.549275 2 1 tcp 40 ------- 0 2.1 1.0 1 3
- 5.549488 2 1 tcp 85 ------- 0 2.1 1.0 1 4
r 5.550275 2 1 tcp 40 ------- 0 2.1 1.0 1 2
+ 5.550275 1 2 ack 40 ------- 0 1.0 2.1 1 5
- 5.550275 1 2 ack 40 ------- 0 1.0 2.1 1 5
r 5.550488 2 1 tcp 40 ------- 0 2.1 1.0 1 3
r 5.550942 2 1 tcp 85 ------- 0 2.1 1.0 1 4
r 5.551488 1 2 ack 40 ------- 0 1.0 2.1 1 5
+ 5.551488 2 1 tcp 40 ------- 0 2.1 1.0 46 6
- 5.551488 2 1 tcp 40 ------- 0 2.1 1.0 46 6
r 5.552702 2 1 tcp 40 ------- 0 2.1 1.0 46 6
+ 5.749062 2 1 tcp 85 ------- 0 2.1 1.0 1 7
- 5.749062 2 1 tcp 85 ------- 0 2.1 1.0 1 7
r 5.750515 2 1 tcp 85 ------- 0 2.1 1.0 1 7
+ 5.750515 1 2 ack 40 ------- 0 1.0 2.1 2 8
- 5.750515 1 2 ack 40 ------- 0 1.0 2.1 2 8
r 5.751728 1 2 ack 40 ------- 0 1.0 2.1 2 8
+ 5.751728 2 1 tcp 40 ------- 0 2.1 1.0 46 9
- 5.751728 2 1 tcp 40 ------- 0 2.1 1.0 46 9
r 5.752942 2 1 tcp 40 ------- 0 2.1 1.0 46 9
+ 5.752942 1 2 ack 40 ------- 0 1.0 2.1 2 10
- 5.752942 1 2 ack 40 ------- 0 1.0 2.1 2 10
r 5.754155 1 2 ack 40 ------- 0 1.0 2.1 2 10
+ 6.436021 1 3 tcp 40 ------- 0 1.2 3.0 0 11
- 6.436021 1 3 tcp 40 ------- 0 1.2 3.0 0 11
r 6.437234 1 3 tcp 40 ------- 0 1.2 3.0 0 11
+ 6.437234 3 1 ack 40 ------- 0 3.0 1.2 0 12
- 6.437234 3 1 ack 40 ------- 0 3.0 1.2 0 12
r 6.438447 3 1 ack 40 ------- 0 3.0 1.2 0 12
+ 6.438447 1 3 tcp 40 ------- 0 1.2 3.0 1 13
- 6.438447 1 3 tcp 40 ------- 0 1.2 3.0 1 13
+ 6.438447 1 3 tcp 40 ------- 0 1.2 3.0 1 14
+ 6.438447 1 3 tcp 85 ------- 0 1.2 3.0 1 15
- 6.438661 1 3 tcp 40 ------- 0 1.2 3.0 1 14
- 6.438874 1 3 tcp 85 ------- 0 1.2 3.0 1 15
r 6.439661 1 3 tcp 40 ------- 0 1.2 3.0 1 13
+ 6.439661 3 1 ack 40 ------- 0 3.0 1.2 1 16
- 6.439661 3 1 ack 40 ------- 0 3.0 1.2 1 16
r 6.439874 1 3 tcp 40 ------- 0 1.2 3.0 1 14
r 6.440327 1 3 tcp 85 ------- 0 1.2 3.0 1 15
r 6.440874 3 1 ack 40 ------- 0 3.0 1.2 1 16
+ 6.440874 1 3 tcp 40 ------- 0 1.2 3.0 46 17
- 6.440874 1 3 tcp 40 ------- 0 1.2 3.0 46 17
r 6.442087 1 3 tcp 40 ------- 0 1.2 3.0 46 17
+ 6.638447 1 3 tcp 85 ------- 0 1.2 3.0 1 18
- 6.638447 1 3 tcp 85 ------- 0 1.2 3.0 1 18
r 6.639901 1 3 tcp 85 ------- 0 1.2 3.0 1 18
+ 6.639901 3 1 ack 40 ------- 0 3.0 1.2 2 19
- 6.639901 3 1 ack 40 ------- 0 3.0 1.2 2 19
r 6.641114 3 1 ack 40 ------- 0 3.0 1.2 2 19
+ 6.641114 1 3 tcp 40 ------- 0 1.2 3.0 46 20
- 6.641114 1 3 tcp 40 ------- 0 1.2 3.0 46 20
r 6.642327 1 3 tcp 40 ------- 0 1.2 3.0 46 20
+ 6.642327 3 1 ack 40 ------- 0 3.0 1.2 2 21
- 6.642327 3 1 ack 40 ------- 0 3.0 1.2 2 21
r 6.643541 3 1 ack 40 ------- 0 3.0 1.2 2 21
+ 6.840829 0 1 tcp 40 ------- 0 0.1 1.1 0 22
- 6.840829 0 1 tcp 40 ------- 0 0.1 1.1 0 22
r 6.842042 0 1 tcp 40 ------- 0 0.1 1.1 0 22
+ 6.842042 1 0 ack 40 ------- 0 1.1 0.1 0 23
- 6.842042 1 0 ack 40 ------- 0 1.1 0.1 0 23
r 6.843256 1 0 ack 40 ------- 0 1.1 0.1 0 23
+ 6.843256 0 1 tcp 40 ------- 0 0.1 1.1 1 24
- 6.843256 0 1 tcp 40 ------- 0 0.1 1.1 1 24
+ 6.843256 0 1 tcp 40 ------- 0 0.1 1.1 1 25
+ 6.843256 0 1 tcp 85 ------- 0 0.1 1.1 1 26
- 6.843469 0 1 tcp 40 ------- 0 0.1 1.1 1 25
- 6.843682 0 1 tcp 85 ------- 0 0.1 1.1 1 26
r 6.844469 0 1 tcp 40 ------- 0 0.1 1.1 1 24
+ 6.844469 1 0 ack 40 ------- 0 1.1 0.1 1 27
- 6.844469 1 0 ack 40 ------- 0 1.1 0.1 1 27
r 6.844682 0 1 tcp 40 ------- 0 0.1 1.1 1 25
r 6.845136 0 1 tcp 85 ------- 0 0.1 1.1 1 26
r 6.845682 1 0 ack 40 ------- 0 1.1 0.1 1 27
+ 6.845682 0 1 tcp 40 ------- 0 0.1 1.1 46 28
- 6.845682 0 1 tcp 40 ------- 0 0.1 1.1 46 28
r 6.846896 0 1 tcp 40 ------- 0 0.1 1.1 46 28
+ 7.043256 0 1 tcp 85 ------- 0 0.1 1.1 1 29
- 7.043256 0 1 tcp 85 ------- 0 0.1 1.1 1 29
r 7.044709 0 1 tcp 85 ------- 0 0.1 1.1 1 29
+ 7.044709 1 0 ack 40 ------- 0 1.1 0.1 2 30
- 7.044709 1 0 ack 40 ------- 0 1.1 0.1 2 30
r 7.045922 1 0 ack 40 ------- 0 1.1 0.1 2 30
+ 7.045922 0 1 tcp 40 ------- 0 0.1 1.1 46 31
- 7.045922 0 1 tcp 40 ------- 0 0.1 1.1 46 31
r 7.047136 0 1 tcp 40 ------- 0 0.1 1.1 46 31
+ 7.047136 1 0 ack 40 ------- 0 1.1 0.1 2 32
- 7.047136 1 0 ack 40 ------- 0 1.1 0.1 2 32
r 7.048349 1 0 ack 40 ------- 0 1.1 0.1 2 32
+ 8.514286 3 1 tcp 40 ------- 0 3.2 1.3 0 33
- 8.514286 3 1 tcp 40 ------- 0 3.2 1.3 0 33
r 8.515499 3 1 tcp 40 ------- 0 3.2 1.3 0 33
+ 8.515499 1 3 ack 40 ------- 0 1.3 3.2 0 34
- 8.515499 1 3 ack 40 ------- 0 1.3 3.2 0 34
r 8.516713 1 3 ack 40 ------- 0 1.3 3.2 0 34
+ 8.516713 3 1 tcp 40 ------- 0 3.2 1.3 1 35
- 8.516713 3 1 tcp 40 ------- 0 3.2 1.3 1 35
+ 8.516713 3 1 tcp 40 ------- 0 3.2 1.3 1 36
+ 8.516713 3 1 tcp 85 ------- 0 3.2 1.3 1 37
- 8.516926 3 1 tcp 40 ------- 0 3.2 1.3 1 36
- 8.517139 3 1 tcp 85 ------- 0 3.2 1.3 1 37
r 8.517926 3 1 tcp 40 ------- 0 3.2 1.3 1 35
r 8.518139 3 1 tcp 40 ------- 0 3.2 1.3 1 36
r 8.518593 3 1 tcp 85 ------- 0 3.2 1.3 1 37
+ 8.518593 1 3 ack 85 ------- 0 1.3 3.2 1 38
- 8.518593 1 3 ack 85 ------- 0 1.3 3.2 1 38
r 8.520046 1 3 ack 85 ------- 0 1.3 3.2 1 38
+ 8.520046 3 1 tcp 59 ------- 0 3.2 1.3 46 39
- 8.520046 3 1 tcp 59 ------- 0 3.2 1.3 46 39
r 8.521361 3 1 tcp 59 ------- 0 3.2 1.3 46 39
+ 8.521361 1 3 ack 59 ------- 0 1.3 3.2 46 40
- 8.521361 1 3 ack 59 ------- 0 1.3 3.2 46 40
r 8.522675 1 3 ack 59 ------- 0 1.3 3.2 46 40
+ 8.522675 3 1 tcp 59 ------- 0 3.2 1.3 65 41
- 8.522675 3 1 tcp 59 ------- 0 3.2 1.3 65 41
r 8.52399 3 1 tcp 59 ------- 0 3.2 1.3 65 41
+ 8.52399 1 3 ack 59 ------- 0 1.3 3.2 65 42
- 8.52399 1 3 ack 59 ------- 0 1.3 3.2 65 42
r 8.525305 1 3 ack 59 ------- 0 1.3 3.2 65 42
+ 8.6 3 1 tcp 40 ------- 0 3.2 1.3 84 43
- 8.6 3 1 tcp 40 ------- 0 3.2 1.3 84 43
r 8.601213 3 1 tcp 40 ------- 0 3.2 1.3 84 43
+ 8.972449 1 2 tcp 40 ------- 0 1.5 2.0 0 44
- 8.972449 1 2 tcp 40 ------- 0 1.5 2.0 0 44
r 8.973662 1 2 tcp 40 ------- 0 1.5 2.0 0 44
+ 8.973662 2 1 ack 40 ------- 0 2.0 1.5 0 45
- 8.973662 2 1 ack 40 ------- 0 2.0 1.5 0 45
r 8.974875 2 1 ack 40 ------- 0 2.0 1.5 0 45
+ 8.974875 1 2 tcp 40 ------- 0 1.5 2.0 1 46
- 8.974875 1 2 tcp 40 ------- 0 1.5 2.0 1 46
+ 8.974875 1 2 tcp 40 ------- 0 1.5 2.0 1 47
+ 8.974875 1 2 tcp 85 ------- 0 1.5 2.0 1 48
- 8.975089 1 2 tcp 40 ------- 0 1.5 2.0 1 47
- 8.975302 1 2 tcp 85 ------- 0 1.5 2.0 1 48
r 8.976089 1 2 tcp 40 ------- 0 1.5 2.0 1 46
r 8.976302 1 2 tcp 40 ------- 0 1.5 2.0 1 47
r 8.976755 1 2 tcp 85 ------- 0 1.5 2.0 1 48
+ 8.976755 2 1 ack 85 ------- 0 2.0 1.5 1 49
- 8.976755 2 1 ack 85 ------- 0 2.0 1.5 1 49
r 8.978209 2 1 ack 85 ------- 0 2.0 1.5 1 49
+ 8.978209 1 2 tcp 59 ------- 0 1.5 2.0 46 50
- 8.978209 1 2 tcp 59 ------- 0 1.5 2.0 46 50
r 8.979523 1 2 tcp 59 ------- 0 1.5 2.0 46 50
+ 8.979523 2 1 ack 59 ------- 0 2.0 1.5 46 51
- 8.979523 2 1 ack 59 ------- 0 2.0 1.5 46 51
r 8.980838 2 1 ack 59 ------- 0 2.0 1.5 46 51
+ 8.980838 1 2 tcp 59 ------- 0 1.5 2.0 65 52
- 8.980838 1 2 tcp 59 ------- 0 1.5 2.0 65 52
r 8.982153 1 2 tcp 59 ------- 0 1.5 2.0 65 52
+ 8.982153 2 1 ack 59 ------- 0 2.0 1.5 65 53
- 8.982153 2 1 ack 59 ------- 0 2.0 1.5 65 53
r 8.983467 2 1 ack 59 ------- 0 2.0 1.5 65 53
+ 8.999285 1 0 tcp 40 ------- 0 1.6 0.0 0 54
- 8.999285 1 0 tcp 40 ------- 0 1.6 0.0 0 54
+ 9 1 2 tcp 40 ------- 0 1.5 2.0 84 55
- 9 1 2 tcp 40 ------- 0 1.5 2.0 84 55
r 9.000498 1 0 tcp 40 ------- 0 1.6 0.0 0 54
+ 9.000498 0 1 ack 40 ------- 0 0.0 1.6 0 56
- 9.000498 0 1 ack 40 ------- 0 0.0 1.6 0 56
r 9.001213 1 2 tcp 40 ------- 0 1.5 2.0 84 55
r 9.001711 0 1 ack 40 ------- 0 0.0 1.6 0 56
+ 9.001711 1 0 tcp 40 ------- 0 1.6 0.0 1 57
- 9.001711 1 0 tcp 40 ------- 0 1.6 0.0 1 57
+ 9.001711 1 0 tcp 40 ------- 0 1.6 0.0 1 58
+ 9.001711 1 0 tcp 85 ------- 0 1.6 0.0 1 59
- 9.001925 1 0 tcp 40 ------- 0 1.6 0.0 1 58
- 9.002138 1 0 tcp 85 ------- 0 1.6 0.0 1 59
r 9.002925 1 0 tcp 40 ------- 0 1.6 0.0 1 57
r 9.003138 1 0 tcp 40 ------- 0 1.6 0.0 1 58
r 9.003591 1 0 tcp 85 ------- 0 1.6 0.0 1 59
+ 9.003591 0 1 ack 85 ------- 0 0.0 1.6 1 60
- 9.003591 0 1 ack 85 ------- 0 0.0 1.6 1 60
r 9.005045 0 1 ack 85 ------- 0 0.0 1.6 1 60
+ 9.005045 1 0 tcp 59 ------- 0 1.6 0.0 46 61
- 9.005045 1 0 tcp 59 ------- 0 1.6 0.0 46 61
r 9.006359 1 0 tcp 59 ------- 0 1.6 0.0 46 61
+ 9.006359 0 1 ack 59 ------- 0 0.0 1.6 46 62
- 9.006359 0 1 ack 59 ------- 0 0.0 1.6 46 62
r 9.007674 0 1 ack 59 ------- 0 0.0 1.6 46 62
+ 9.007674 1 0 tcp 59 ------- 0 1.6 0.0 65 63
- 9.007674 1 0 tcp 59 ------- 0 1.6 0.0 65 63
r 9.008989 1 0 tcp 59 ------- 0 1.6 0.0 65 63
+ 9.008989 0 1 ack 59 ------- 0 0.0 1.6 65 64
- 9.008989 0 1 ack 59 ------- 0 0.0 1.6 65 64
r 9.010303 0 1 ack 59 ------- 0 0.0 1.6 65 64
+ 9.1 1 0 tcp 40 ------- 0 1.6 0.0 84 65
- 9.1 1 0 tcp 40 ------- 0 1.6 0.0 84 65
r 9.101213 1 0 tcp 40 ------- 0 1.6 0.0 84 65
+ 20 2 1 ack 91 ---A--- 0 2.0 1.5 84 66
- 20 2 1 ack 91 ---A--- 0 2.0 1.5 84 66
r 20.001485 2 1 ack 91 ---A--- 0 2.0 1.5 84 66
+ 20.001485 1 0 tcp 93 ---A--- 0 1.6 0.0 84 67
- 20.001485 1 0 tcp 93 ---A--- 0 1.6 0.0 84 67
+ 20.001485 1 3 ack 93 ---A--- 0 1.3 3.2 84 68
- 20.001485 1 3 ack 93 ---A--- 0 1.3 3.2 84 68
r 20.002981 1 0 tcp 93 ---A--- 0 1.6 0.0 84 67
r 20.002981 1 3 ack 93 ---A--- 0 1.3 3.2 84 68
+ 20.1 3 1 tcp 40 ------- 0 3.2 1.3 84 69
- 20.1 3 1 tcp 40 ------- 0 3.2 1.3 84 69
+ 20.1 1 2 tcp 40 ------- 0 1.5 2.0 84 70
- 20.1 1 2 tcp 40 ------- 0 1.5 2.0 84 70
+ 20.1 0 1 ack 40 ------- 0 0.0 1.6 84 71
- 20.1 0 1 ack 40 ------- 0 0.0 1.6 84 71
r 20.101213 3 1 tcp 40 ------- 0 3.2 1.3 84 69
r 20.101213 1 2 tcp 40 ------- 0 1.5 2.0 84 70
r 20.101213 0 1 ack 40 ------- 0 0.0 1.6 84 71
+ 21 3 1 tcp 89 ---A--- 0 3.2 1.3 84 72
- 21 3 1 tcp 89 ---A--- 0 3.2 1.3 84 72
r 21.001475 3 1 tcp 89 ---A--- 0 3.2 1.3 84 72
+ 21.001475 1 2 tcp 91 ---A--- 0 1.5 2.0 84 73
- 21.001475 1 2 tcp 91 ---A--- 0 1.5 2.0 84 73
+ 21.001475 1 3 ack 67 ---A--- 0 1.3 3.2 137 74
- 21.001475 1 3 ack 67 ---A--- 0 1.3 3.2 137 74
r 21.002832 1 3 ack 67 ---A--- 0 1.3 3.2 137 74
r 21.00296 1 2 tcp 91 ---A--- 0 1.5 2.0 84 73
+ 21.1 3 1 tcp 40 ------- 0 3.2 1.3 133 75
- 21.1 3 1 tcp 40 ------- 0 3.2 1.3 133 75
+ 21.1 2 1 ack 40 ------- 0 2.0 1.5 135 76
- 21.1 2 1 ack 40 ------- 0 2.0 1.5 135 76
r 21.101213 3 1 tcp 40 ------- 0 3.2 1.3 133 75
r 21.101213 2 1 ack 40 ------- 0 2.0 1.5 135 76
+ 50.001485 1 0 tcp 91 ---A--- 0 1.6 0.0 137 77
- 50.001485 1 0 tcp 91 ---A--- 0 1.6 0.0 137 77
r 50.002971 1 0 tcp 91 ---A--- 0 1.6 0.0 137 77
+ 50.1 0 1 ack 40 ------- 0 0.0 1.6 84 78
- 50.1 0 1 ack 40 ------- 0 0.0 1.6 84 78
r 50.101213 0 1 ack 40 ------- 0 0.0 1.6 84 78
+ 68.518593 1 3 ack 59 ---A--- 0 1.3 3.2 164 79
- 68.518593 1 3 ack 59 ---A--- 0 1.3 3.2 164 79
r 68.519907 1 3 ack 59 ---A--- 0 1.3 3.2 164 79
+ 68.520046 3 1 tcp 59 ---A--- 0 3.2 1.3 133 80
- 68.520046 3 1 tcp 59 ---A--- 0 3.2 1.3 133 80
r 68.521361 3 1 tcp 59 ---A--- 0 3.2 1.3 133 80
+ 68.6 1 3 ack 40 ------- 0 1.3 3.2 183 81
- 68.6 1 3 ack 40 ------- 0 1.3 3.2 183 81
r 68.601213 1 3 ack 40 ------- 0 1.3 3.2 183 81
+ 68.976755 2 1 ack 59 ---A--- 0 2.0 1.5 135 82
- 68.976755 2 1 ack 59 ---A--- 0 2.0 1.5 135 82
r 68.97807 2 1 ack 59 ---A--- 0 2.0 1.5 135 82
+ 68.978209 1 2 tcp 59 ---A--- 0 1.5 2.0 135 83
- 68.978209 1 2 tcp 59 ---A--- 0 1.5 2.0 135 83
r 68.979523 1 2 tcp 59 ---A--- 0 1.5 2.0 135 83
+ 69 2 1 ack 40 ------- 0 2.0 1.5 154 84
- 69 2 1 ack 40 ------- 0 2.0 1.5 154 84
r 69.001213 2 1 ack 40 ------- 0 2.0 1.5 154 84
+ 69.003591 0 1 ack 59 ---A--- 0 0.0 1.6 84 85
- 69.003591 0 1 ack 59 ---A--- 0 0.0 1.6 84 85
r 69.004906 0 1 ack 59 ---A--- 0 0.0 1.6 84 85
+ 69.005045 1 0 tcp 59 ---A--- 0 1.6 0.0 188 86
- 69.005045 1 0 tcp 59 ---A--- 0 1.6 0.0 188 86
r 69.006359 1 0 tcp 59 ---A--- 0 1.6 0.0 188 86
+ 69.1 0 1 ack 40 ------- 0 0.0 1.6 103 87
- 69.1 0 1 ack 40 ------- 0 0.0 1.6 103 87
r 69.101213 0 1 ack 40 ------- 0 0.0 1.6 103 87
