+ 5.296671 2 0 tcp 40 ------- 0 2.1 0.0 0 0
- 5.296671 2 0 tcp 40 ------- 0 2.1 0.0 0 0
r 5.297885 2 0 tcp 40 ------- 0 2.1 0.0 0 0
+ 5.297885 0 2 ack 40 ------- 0 0.0 2.1 0 1
- 5.297885 0 2 ack 40 ------- 0 0.0 2.1 0 1
r 5.299098 0 2 ack 40 ------- 0 0.0 2.1 0 1
+ 5.299098 2 0 tcp 40 ------- 0 2.1 0.0 1 2
- 5.299098 2 0 tcp 40 ------- 0 2.1 0.0 1 2
+ 5.299098 2 0 tcp 40 ------- 0 2.1 0.0 1 3
+ 5.299098 2 0 tcp 85 ------- 0 2.1 0.0 1 4
- 5.299311 2 0 tcp 40 ------- 0 2.1 0.0 1 3
- 5.299525 2 0 tcp 85 ------- 0 2.1 0.0 1 4
r 5.300311 2 0 tcp 40 ------- 0 2.1 0.0 1 2
+ 5.300311 0 2 ack 40 ------- 0 0.0 2.1 1 5
- 5.300311 0 2 ack 40 ------- 0 0.0 2.1 1 5
r 5.300525 2 0 tcp 40 ------- 0 2.1 0.0 1 3
r 5.300978 2 0 tcp 85 ------- 0 2.1 0.0 1 4
r 5.301525 0 2 ack 40 ------- 0 0.0 2.1 1 5
+ 5.301525 2 0 tcp 40 ------- 0 2.1 0.0 46 6
- 5.301525 2 0 tcp 40 ------- 0 2.1 0.0 46 6
r 5.302738 2 0 tcp 40 ------- 0 2.1 0.0 46 6
+ 5.499098 2 0 tcp 85 ------- 0 2.1 0.0 1 7
- 5.499098 2 0 tcp 85 ------- 0 2.1 0.0 1 7
r 5.500551 2 0 tcp 85 ------- 0 2.1 0.0 1 7
+ 5.500551 0 2 ack 40 ------- 0 0.0 2.1 2 8
- 5.500551 0 2 ack 40 ------- 0 0.0 2.1 2 8
r 5.501765 0 2 ack 40 ------- 0 0.0 2.1 2 8
+ 5.501765 2 0 tcp 40 ------- 0 2.1 0.0 46 9
- 5.501765 2 0 tcp 40 ------- 0 2.1 0.0 46 9
r 5.502978 2 0 tcp 40 ------- 0 2.1 0.0 46 9
+ 5.502978 0 2 ack 40 ------- 0 0.0 2.1 2 10
- 5.502978 0 2 ack 40 ------- 0 0.0 2.1 2 10
r 5.504191 0 2 ack 40 ------- 0 0.0 2.1 2 10
+ 5.741957 2 3 tcp 40 ------- 0 2.2 3.0 0 11
- 5.741957 2 3 tcp 40 ------- 0 2.2 3.0 0 11
r 5.743171 2 3 tcp 40 ------- 0 2.2 3.0 0 11
+ 5.743171 3 2 ack 40 ------- 0 3.0 2.2 0 12
- 5.743171 3 2 ack 40 ------- 0 3.0 2.2 0 12
r 5.744384 3 2 ack 40 ------- 0 3.0 2.2 0 12
+ 5.744384 2 3 tcp 40 ------- 0 2.2 3.0 1 13
- 5.744384 2 3 tcp 40 ------- 0 2.2 3.0 1 13
+ 5.744384 2 3 tcp 40 ------- 0 2.2 3.0 1 14
+ 5.744384 2 3 tcp 85 ------- 0 2.2 3.0 1 15
- 5.744597 2 3 tcp 40 ------- 0 2.2 3.0 1 14
- 5.744811 2 3 tcp 85 ------- 0 2.2 3.0 1 15
r 5.745597 2 3 tcp 40 ------- 0 2.2 3.0 1 13
+ 5.745597 3 2 ack 40 ------- 0 3.0 2.2 1 16
- 5.745597 3 2 ack 40 ------- 0 3.0 2.2 1 16
r 5.745811 2 3 tcp 40 ------- 0 2.2 3.0 1 14
r 5.746264 2 3 tcp 85 ------- 0 2.2 3.0 1 15
r 5.746811 3 2 ack 40 ------- 0 3.0 2.2 1 16
+ 5.746811 2 3 tcp 40 ------- 0 2.2 3.0 46 17
- 5.746811 2 3 tcp 40 ------- 0 2.2 3.0 46 17
r 5.748024 2 3 tcp 40 ------- 0 2.2 3.0 46 17
+ 5.944384 2 3 tcp 85 ------- 0 2.2 3.0 1 18
- 5.944384 2 3 tcp 85 ------- 0 2.2 3.0 1 18
r 5.945837 2 3 tcp 85 ------- 0 2.2 3.0 1 18
+ 5.945837 3 2 ack 40 ------- 0 3.0 2.2 2 19
- 5.945837 3 2 ack 40 ------- 0 3.0 2.2 2 19
r 5.947051 3 2 ack 40 ------- 0 3.0 2.2 2 19
+ 5.947051 2 3 tcp 40 ------- 0 2.2 3.0 46 20
- 5.947051 2 3 tcp 40 ------- 0 2.2 3.0 46 20
r 5.948264 2 3 tcp 40 ------- 0 2.2 3.0 46 20
+ 5.948264 3 2 ack 40 ------- 0 3.0 2.2 2 21
- 5.948264 3 2 ack 40 ------- 0 3.0 2.2 2 21
r 5.949477 3 2 ack 40 ------- 0 3.0 2.2 2 21
+ 7.196328 3 0 tcp 40 ------- 0 3.2 0.1 0 22
- 7.196328 3 0 tcp 40 ------- 0 3.2 0.1 0 22
r 7.197541 3 0 tcp 40 ------- 0 3.2 0.1 0 22
+ 7.197541 0 3 ack 40 ------- 0 0.1 3.2 0 23
- 7.197541 0 3 ack 40 ------- 0 0.1 3.2 0 23
r 7.198755 0 3 ack 40 ------- 0 0.1 3.2 0 23
+ 7.198755 3 0 tcp 40 ------- 0 3.2 0.1 1 24
- 7.198755 3 0 tcp 40 ------- 0 3.2 0.1 1 24
+ 7.198755 3 0 tcp 40 ------- 0 3.2 0.1 1 25
+ 7.198755 3 0 tcp 85 ------- 0 3.2 0.1 1 26
- 7.198968 3 0 tcp 40 ------- 0 3.2 0.1 1 25
- 7.199181 3 0 tcp 85 ------- 0 3.2 0.1 1 26
r 7.199968 3 0 tcp 40 ------- 0 3.2 0.1 1 24
r 7.200181 3 0 tcp 40 ------- 0 3.2 0.1 1 25
r 7.200635 3 0 tcp 85 ------- 0 3.2 0.1 1 26
+ 7.200635 0 3 ack 85 ------- 0 0.1 3.2 1 27
- 7.200635 0 3 ack 85 ------- 0 0.1 3.2 1 27
r 7.202088 0 3 ack 85 ------- 0 0.1 3.2 1 27
+ 7.202088 3 0 tcp 59 ------- 0 3.2 0.1 46 28
- 7.202088 3 0 tcp 59 ------- 0 3.2 0.1 46 28
r 7.203403 3 0 tcp 59 ------- 0 3.2 0.1 46 28
+ 7.203403 0 3 ack 59 ------- 0 0.1 3.2 46 29
- 7.203403 0 3 ack 59 ------- 0 0.1 3.2 46 29
r 7.204717 0 3 ack 59 ------- 0 0.1 3.2 46 29
+ 7.204717 3 0 tcp 59 ------- 0 3.2 0.1 65 30
- 7.204717 3 0 tcp 59 ------- 0 3.2 0.1 65 30
r 7.206032 3 0 tcp 59 ------- 0 3.2 0.1 65 30
+ 7.206032 0 3 ack 59 ------- 0 0.1 3.2 65 31
- 7.206032 0 3 ack 59 ------- 0 0.1 3.2 65 31
r 7.207347 0 3 ack 59 ------- 0 0.1 3.2 65 31
+ 7.3 3 0 tcp 40 ------- 0 3.2 0.1 84 32
- 7.3 3 0 tcp 40 ------- 0 3.2 0.1 84 32
r 7.301213 3 0 tcp 40 ------- 0 3.2 0.1 84 32
+ 8.298677 3 2 tcp 40 ------- 0 3.3 2.0 0 33
- 8.298677 3 2 tcp 40 ------- 0 3.3 2.0 0 33
r 8.29989 3 2 tcp 40 ------- 0 3.3 2.0 0 33
+ 8.29989 2 3 ack 40 ------- 0 2.0 3.3 0 34
- 8.29989 2 3 ack 40 ------- 0 2.0 3.3 0 34
r 8.301104 2 3 ack 40 ------- 0 2.0 3.3 0 34
+ 8.301104 3 2 tcp 40 ------- 0 3.3 2.0 1 35
- 8.301104 3 2 tcp 40 ------- 0 3.3 2.0 1 35
+ 8.301104 3 2 tcp 40 ------- 0 3.3 2.0 1 36
+ 8.301104 3 2 tcp 85 ------- 0 3.3 2.0 1 37
- 8.301317 3 2 tcp 40 ------- 0 3.3 2.0 1 36
- 8.30153 3 2 tcp 85 ------- 0 3.3 2.0 1 37
r 8.302317 3 2 tcp 40 ------- 0 3.3 2.0 1 35
r 8.30253 3 2 tcp 40 ------- 0 3.3 2.0 1 36
r 8.302984 3 2 tcp 85 ------- 0 3.3 2.0 1 37
+ 8.302984 2 3 ack 85 ------- 0 2.0 3.3 1 38
- 8.302984 2 3 ack 85 ------- 0 2.0 3.3 1 38
r 8.304437 2 3 ack 85 ------- 0 2.0 3.3 1 38
+ 8.304437 3 2 tcp 59 ------- 0 3.3 2.0 46 39
- 8.304437 3 2 tcp 59 ------- 0 3.3 2.0 46 39
r 8.305752 3 2 tcp 59 ------- 0 3.3 2.0 46 39
+ 8.305752 2 3 ack 59 ------- 0 2.0 3.3 46 40
- 8.305752 2 3 ack 59 ------- 0 2.0 3.3 46 40
r 8.307066 2 3 ack 59 ------- 0 2.0 3.3 46 40
+ 8.307066 3 2 tcp 59 ------- 0 3.3 2.0 65 41
- 8.307066 3 2 tcp 59 ------- 0 3.3 2.0 65 41
r 8.308381 3 2 tcp 59 ------- 0 3.3 2.0 65 41
+ 8.308381 2 3 ack 106 ------- 0 2.0 3.3 65 42
- 8.308381 2 3 ack 106 ------- 0 2.0 3.3 65 42
r 8.309946 2 3 ack 106 ------- 0 2.0 3.3 65 42
+ 8.309946 3 0 tcp 91 ---A--- 0 3.2 0.1 84 43
- 8.309946 3 0 tcp 91 ---A--- 0 3.2 0.1 84 43
r 8.311432 3 0 tcp 91 ---A--- 0 3.2 0.1 84 43
+ 8.4 0 3 ack 40 ------- 0 0.1 3.2 84 44
- 8.4 0 3 ack 40 ------- 0 0.1 3.2 84 44
+ 8.4 3 2 tcp 40 ------- 0 3.3 2.0 84 45
- 8.4 3 2 tcp 40 ------- 0 3.3 2.0 84 45
r 8.401213 0 3 ack 40 ------- 0 0.1 3.2 84 44
r 8.401213 3 2 tcp 40 ------- 0 3.3 2.0 84 45
+ 67.200635 0 3 ack 59 ---A--- 0 0.1 3.2 84 46
- 67.200635 0 3 ack 59 ---A--- 0 0.1 3.2 84 46
r 67.201949 0 3 ack 59 ---A--- 0 0.1 3.2 84 46
+ 67.202088 3 0 tcp 59 ---A--- 0 3.2 0.1 135 47
- 67.202088 3 0 tcp 59 ---A--- 0 3.2 0.1 135 47
r 67.203403 3 0 tcp 59 ---A--- 0 3.2 0.1 135 47
+ 67.3 0 3 ack 40 ------- 0 0.1 3.2 103 48
- 67.3 0 3 ack 40 ------- 0 0.1 3.2 103 48
r 67.301213 0 3 ack 40 ------- 0 0.1 3.2 103 48
+ 68.302984 2 3 ack 59 ---A--- 0 2.0 3.3 131 49
- 68.302984 2 3 ack 59 ---A--- 0 2.0 3.3 131 49
r 68.304298 2 3 ack 59 ---A--- 0 2.0 3.3 131 49
+ 68.304437 3 2 tcp 59 ---A--- 0 3.3 2.0 84 50
- 68.304437 3 2 tcp 59 ---A--- 0 3.3 2.0 84 50
r 68.305752 3 2 tcp 59 ---A--- 0 3.3 2.0 84 50
+ 68.4 2 3 ack 40 ------- 0 2.0 3.3 150 51
- 68.4 2 3 ack 40 ------- 0 2.0 3.3 150 51
r 68.401213 2 3 ack 40 ------- 0 2.0 3.3 150 51
+ 125.301525 2 0 tcp 40 ------- 0 2.4 0.2 0 52
- 125.301525 2 0 tcp 40 ------- 0 2.4 0.2 0 52
r 125.302738 2 0 tcp 40 ------- 0 2.4 0.2 0 52
+ 125.302738 0 2 ack 40 ------- 0 0.2 2.4 0 53
- 125.302738 0 2 ack 40 ------- 0 0.2 2.4 0 53
r 125.303951 0 2 ack 40 ------- 0 0.2 2.4 0 53
+ 125.303951 2 0 tcp 40 ------- 0 2.4 0.2 1 54
- 125.303951 2 0 tcp 40 ------- 0 2.4 0.2 1 54
+ 125.303951 2 0 tcp 40 ------- 0 2.4 0.2 1 55
+ 125.303951 2 0 tcp 85 ------- 0 2.4 0.2 1 56
- 125.304165 2 0 tcp 40 ------- 0 2.4 0.2 1 55
- 125.304378 2 0 tcp 85 ------- 0 2.4 0.2 1 56
r 125.305165 2 0 tcp 40 ------- 0 2.4 0.2 1 54
r 125.305378 2 0 tcp 40 ------- 0 2.4 0.2 1 55
r 125.305831 2 0 tcp 85 ------- 0 2.4 0.2 1 56
+ 125.305831 0 2 ack 85 ------- 0 0.2 2.4 1 57
- 125.305831 0 2 ack 85 ------- 0 0.2 2.4 1 57
r 125.307285 0 2 ack 85 ------- 0 0.2 2.4 1 57
+ 125.307285 2 0 tcp 59 ------- 0 2.4 0.2 46 58
- 125.307285 2 0 tcp 59 ------- 0 2.4 0.2 46 58
r 125.308599 2 0 tcp 59 ------- 0 2.4 0.2 46 58
+ 125.308599 0 2 ack 59 ------- 0 0.2 2.4 46 59
- 125.308599 0 2 ack 59 ------- 0 0.2 2.4 46 59
r 125.309914 0 2 ack 59 ------- 0 0.2 2.4 46 59
+ 125.309914 2 0 tcp 59 ------- 0 2.4 0.2 65 60
- 125.309914 2 0 tcp 59 ------- 0 2.4 0.2 65 60
r 125.311229 2 0 tcp 59 ------- 0 2.4 0.2 65 60
+ 125.311229 0 2 ack 105 ------- 0 0.2 2.4 65 61
- 125.311229 0 2 ack 105 ------- 0 0.2 2.4 65 61
r 125.312789 0 2 ack 105 ------- 0 0.2 2.4 65 61
+ 125.312789 2 0 tcp 91 ------- 0 2.4 0.2 84 62
- 125.312789 2 0 tcp 91 ------- 0 2.4 0.2 84 62
r 125.314274 2 0 tcp 91 ------- 0 2.4 0.2 84 62
+ 125.314274 0 2 ack 66 ------- 0 0.2 2.4 130 63
- 125.314274 0 2 ack 66 ------- 0 0.2 2.4 130 63
+ 125.314274 0 3 ack 86 ---A--- 0 0.1 3.2 103 64
- 125.314274 0 3 ack 86 ---A--- 0 0.1 3.2 103 64
r 125.315626 0 2 ack 66 ------- 0 0.2 2.4 130 63
r 125.315733 0 3 ack 86 ---A--- 0 0.1 3.2 103 64
+ 125.4 3 0 tcp 40 ------- 0 3.2 0.1 154 65
- 125.4 3 0 tcp 40 ------- 0 3.2 0.1 154 65
+ 125.4 2 0 tcp 40 ------- 0 2.4 0.2 135 66
- 125.4 2 0 tcp 40 ------- 0 2.4 0.2 135 66
r 125.401213 3 0 tcp 40 ------- 0 3.2 0.1 154 65
r 125.401213 2 0 tcp 40 ------- 0 2.4 0.2 135 66
+ 127.200635 0 3 ack 59 ---A--- 0 0.1 3.2 149 67
- 127.200635 0 3 ack 59 ---A--- 0 0.1 3.2 149 67
r 127.201949 0 3 ack 59 ---A--- 0 0.1 3.2 149 67
+ 127.202088 3 0 tcp 59 ---A--- 0 3.2 0.1 154 68
- 127.202088 3 0 tcp 59 ---A--- 0 3.2 0.1 154 68
r 127.203403 3 0 tcp 59 ---A--- 0 3.2 0.1 154 68
+ 127.3 0 3 ack 40 ------- 0 0.1 3.2 168 69
- 127.3 0 3 ack 40 ------- 0 0.1 3.2 168 69
r 127.301213 0 3 ack 40 ------- 0 0.1 3.2 168 69
+ 128.302984 2 3 ack 59 ---A--- 0 2.0 3.3 150 70
- 128.302984 2 3 ack 59 ---A--- 0 2.0 3.3 150 70
r 128.304298 2 3 ack 59 ---A--- 0 2.0 3.3 150 70
+ 128.304437 3 2 tcp 59 ---A--- 0 3.3 2.0 103 71
- 128.304437 3 2 tcp 59 ---A--- 0 3.3 2.0 103 71
r 128.305752 3 2 tcp 59 ---A--- 0 3.3 2.0 103 71
+ 128.4 2 3 ack 40 ------- 0 2.0 3.3 169 72
- 128.4 2 3 ack 40 ------- 0 2.0 3.3 169 72
r 128.401213 2 3 ack 40 ------- 0 2.0 3.3 169 72
+ 185.305831 0 2 ack 59 ---A--- 0 0.2 2.4 156 73
- 185.305831 0 2 ack 59 ---A--- 0 0.2 2.4 156 73
r 185.307146 0 2 ack 59 ---A--- 0 0.2 2.4 156 73
+ 185.307285 2 0 tcp 59 ---A--- 0 2.4 0.2 135 74
- 185.307285 2 0 tcp 59 ---A--- 0 2.4 0.2 135 74
r 185.308599 2 0 tcp 59 ---A--- 0 2.4 0.2 135 74
+ 185.4 0 2 ack 40 ------- 0 0.2 2.4 175 75
- 185.4 0 2 ack 40 ------- 0 0.2 2.4 175 75
r 185.401213 0 2 ack 40 ------- 0 0.2 2.4 175 75
+ 187.200635 0 3 ack 59 ---A--- 0 0.1 3.2 168 76
- 187.200635 0 3 ack 59 ---A--- 0 0.1 3.2 168 76
r 187.201949 0 3 ack 59 ---A--- 0 0.1 3.2 168 76
+ 187.202088 3 0 tcp 59 ---A--- 0 3.2 0.1 173 77
- 187.202088 3 0 tcp 59 ---A--- 0 3.2 0.1 173 77
r 187.203403 3 0 tcp 59 ---A--- 0 3.2 0.1 173 77
+ 187.3 0 3 ack 40 ------- 0 0.1 3.2 187 78
- 187.3 0 3 ack 40 ------- 0 0.1 3.2 187 78
r 187.301213 0 3 ack 40 ------- 0 0.1 3.2 187 78
+ 188.302984 2 3 ack 59 ---A--- 0 2.0 3.3 169 79
- 188.302984 2 3 ack 59 ---A--- 0 2.0 3.3 169 79
r 188.304298 2 3 ack 59 ---A--- 0 2.0 3.3 169 79
+ 188.304437 3 2 tcp 59 ---A--- 0 3.3 2.0 122 80
- 188.304437 3 2 tcp 59 ---A--- 0 3.3 2.0 122 80
r 188.305752 3 2 tcp 59 ---A--- 0 3.3 2.0 122 80
+ 188.4 2 3 ack 40 ------- 0 2.0 3.3 188 81
- 188.4 2 3 ack 40 ------- 0 2.0 3.3 188 81
r 188.401213 2 3 ack 40 ------- 0 2.0 3.3 188 81
+ 208.256684 1 0 tcp 40 ------- 0 1.1 0.3 0 82
- 208.256684 1 0 tcp 40 ------- 0 1.1 0.3 0 82
r 208.257897 1 0 tcp 40 ------- 0 1.1 0.3 0 82
+ 208.257897 0 1 ack 40 ------- 0 0.3 1.1 0 83
- 208.257897 0 1 ack 40 ------- 0 0.3 1.1 0 83
r 208.25911 0 1 ack 40 ------- 0 0.3 1.1 0 83
+ 208.25911 1 0 tcp 40 ------- 0 1.1 0.3 1 84
- 208.25911 1 0 tcp 40 ------- 0 1.1 0.3 1 84
+ 208.25911 1 0 tcp 40 ------- 0 1.1 0.3 1 85
+ 208.25911 1 0 tcp 85 ------- 0 1.1 0.3 1 86
- 208.259324 1 0 tcp 40 ------- 0 1.1 0.3 1 85
- 208.259537 1 0 tcp 85 ------- 0 1.1 0.3 1 86
r 208.260324 1 0 tcp 40 ------- 0 1.1 0.3 1 84
r 208.260537 1 0 tcp 40 ------- 0 1.1 0.3 1 85
r 208.26099 1 0 tcp 85 ------- 0 1.1 0.3 1 86
+ 208.26099 0 1 ack 85 ------- 0 0.3 1.1 1 87
- 208.26099 0 1 ack 85 ------- 0 0.3 1.1 1 87
r 208.262444 0 1 ack 85 ------- 0 0.3 1.1 1 87
+ 208.262444 1 0 tcp 59 ------- 0 1.1 0.3 46 88
- 208.262444 1 0 tcp 59 ------- 0 1.1 0.3 46 88
r 208.263758 1 0 tcp 59 ------- 0 1.1 0.3 46 88
+ 208.263758 0 1 ack 59 ------- 0 0.3 1.1 46 89
- 208.263758 0 1 ack 59 ------- 0 0.3 1.1 46 89
r 208.265073 0 1 ack 59 ------- 0 0.3 1.1 46 89
+ 208.265073 1 0 tcp 59 ------- 0 1.1 0.3 65 90
- 208.265073 1 0 tcp 59 ------- 0 1.1 0.3 65 90
r 208.266388 1 0 tcp 59 ------- 0 1.1 0.3 65 90
+ 208.266388 0 1 ack 105 ------- 0 0.3 1.1 65 91
- 208.266388 0 1 ack 105 ------- 0 0.3 1.1 65 91
r 208.267948 0 1 ack 105 ------- 0 0.3 1.1 65 91
+ 208.267948 1 0 tcp 91 ------- 0 1.1 0.3 84 92
- 208.267948 1 0 tcp 91 ------- 0 1.1 0.3 84 92
r 208.269433 1 0 tcp 91 ------- 0 1.1 0.3 84 92
+ 208.269433 0 2 ack 86 ---A--- 0 0.2 2.4 175 93
- 208.269433 0 2 ack 86 ---A--- 0 0.2 2.4 175 93
+ 208.269433 0 3 ack 86 ---A--- 0 0.1 3.2 187 94
- 208.269433 0 3 ack 86 ---A--- 0 0.1 3.2 187 94
+ 208.269433 0 1 ack 66 ------- 0 0.3 1.1 130 95
- 208.269433 0 1 ack 66 ------- 0 0.3 1.1 130 95
r 208.270785 0 1 ack 66 ------- 0 0.3 1.1 130 95
r 208.270892 0 2 ack 86 ---A--- 0 0.2 2.4 175 93
r 208.270892 0 3 ack 86 ---A--- 0 0.1 3.2 187 94
+ 208.3 3 0 tcp 40 ------- 0 3.2 0.1 192 96
- 208.3 3 0 tcp 40 ------- 0 3.2 0.1 192 96
+ 208.3 2 0 tcp 40 ------- 0 2.4 0.2 154 97
- 208.3 2 0 tcp 40 ------- 0 2.4 0.2 154 97
+ 208.3 1 0 tcp 40 ------- 0 1.1 0.3 135 98
- 208.3 1 0 tcp 40 ------- 0 1.1 0.3 135 98
r 208.301213 3 0 tcp 40 ------- 0 3.2 0.1 192 96
r 208.301213 2 0 tcp 40 ------- 0 2.4 0.2 154 97
r 208.301213 1 0 tcp 40 ------- 0 1.1 0.3 135 98
+ 245.305831 0 2 ack 59 ---A--- 0 0.2 2.4 221 99
- 245.305831 0 2 ack 59 ---A--- 0 0.2 2.4 221 99
r 245.307146 0 2 ack 59 ---A--- 0 0.2 2.4 221 99
+ 245.307285 2 0 tcp 59 ---A--- 0 2.4 0.2 154 100
- 245.307285 2 0 tcp 59 ---A--- 0 2.4 0.2 154 100
r 245.308599 2 0 tcp 59 ---A--- 0 2.4 0.2 154 100
+ 245.4 0 2 ack 40 ------- 0 0.2 2.4 240 101
- 245.4 0 2 ack 40 ------- 0 0.2 2.4 240 101
r 245.401213 0 2 ack 40 ------- 0 0.2 2.4 240 101
+ 247.200635 0 3 ack 59 ---A--- 0 0.1 3.2 233 102
- 247.200635 0 3 ack 59 ---A--- 0 0.1 3.2 233 102
r 247.201949 0 3 ack 59 ---A--- 0 0.1 3.2 233 102
+ 247.202088 3 0 tcp 59 ---A--- 0 3.2 0.1 192 103
- 247.202088 3 0 tcp 59 ---A--- 0 3.2 0.1 192 103
r 247.203403 3 0 tcp 59 ---A--- 0 3.2 0.1 192 103
+ 247.3 0 3 ack 40 ------- 0 0.1 3.2 252 104
- 247.3 0 3 ack 40 ------- 0 0.1 3.2 252 104
r 247.301213 0 3 ack 40 ------- 0 0.1 3.2 252 104
+ 248.302984 2 3 ack 59 ---A--- 0 2.0 3.3 188 105
- 248.302984 2 3 ack 59 ---A--- 0 2.0 3.3 188 105
r 248.304298 2 3 ack 59 ---A--- 0 2.0 3.3 188 105
+ 248.304437 3 2 tcp 59 ---A--- 0 3.3 2.0 141 106
- 248.304437 3 2 tcp 59 ---A--- 0 3.3 2.0 141 106
r 248.305752 3 2 tcp 59 ---A--- 0 3.3 2.0 141 106
+ 248.4 2 3 ack 40 ------- 0 2.0 3.3 207 107
- 248.4 2 3 ack 40 ------- 0 2.0 3.3 207 107
r 248.401213 2 3 ack 40 ------- 0 2.0 3.3 207 107
+ 268.26099 0 1 ack 59 ---A--- 0 0.3 1.1 156 108
- 268.26099 0 1 ack 59 ---A--- 0 0.3 1.1 156 108
r 268.262305 0 1 ack 59 ---A--- 0 0.3 1.1 156 108
+ 268.262444 1 0 tcp 59 ---A--- 0 1.1 0.3 135 109
- 268.262444 1 0 tcp 59 ---A--- 0 1.1 0.3 135 109
r 268.263758 1 0 tcp 59 ---A--- 0 1.1 0.3 135 109
+ 268.3 0 1 ack 40 ------- 0 0.3 1.1 175 110
- 268.3 0 1 ack 40 ------- 0 0.3 1.1 175 110
r 268.301213 0 1 ack 40 ------- 0 0.3 1.1 175 110
