+ 5.29622 2 1 tcp 40 ------- 0 2.1 1.0 0 0
- 5.29622 2 1 tcp 40 ------- 0 2.1 1.0 0 0
r 5.297433 2 1 tcp 40 ------- 0 2.1 1.0 0 0
+ 5.297433 1 2 ack 40 ------- 0 1.0 2.1 0 1
- 5.297433 1 2 ack 40 ------- 0 1.0 2.1 0 1
r 5.298647 1 2 ack 40 ------- 0 1.0 2.1 0 1
+ 5.298647 2 1 tcp 40 ------- 0 2.1 1.0 1 2
- 5.298647 2 1 tcp 40 ------- 0 2.1 1.0 1 2
+ 5.298647 2 1 tcp 40 ------- 0 2.1 1.0 1 3
+ 5.298647 2 1 tcp 85 ------- 0 2.1 1.0 1 4
- 5.29886 2 1 tcp 40 ------- 0 2.1 1.0 1 3
- 5.299073 2 1 tcp 85 ------- 0 2.1 1.0 1 4
r 5.29986 2 1 tcp 40 ------- 0 2.1 1.0 1 2
+ 5.29986 1 2 ack 40 ------- 0 1.0 2.1 1 5
- 5.29986 1 2 ack 40 ------- 0 1.0 2.1 1 5
r 5.300073 2 1 tcp 40 ------- 0 2.1 1.0 1 3
r 5.300527 2 1 tcp 85 ------- 0 2.1 1.0 1 4
r 5.301073 1 2 ack 40 ------- 0 1.0 2.1 1 5
+ 5.301073 2 1 tcp 40 ------- 0 2.1 1.0 46 6
- 5.301073 2 1 tcp 40 ------- 0 2.1 1.0 46 6
r 5.302287 2 1 tcp 40 ------- 0 2.1 1.0 46 6
+ 5.390236 0 2 tcp 40 ------- 0 0.1 2.0 0 7
- 5.390236 0 2 tcp 40 ------- 0 0.1 2.0 0 7
r 5.391449 0 2 tcp 40 ------- 0 0.1 2.0 0 7
+ 5.391449 2 0 ack 40 ------- 0 2.0 0.1 0 8
- 5.391449 2 0 ack 40 ------- 0 2.0 0.1 0 8
r 5.392663 2 0 ack 40 ------- 0 2.0 0.1 0 8
+ 5.392663 0 2 tcp 40 ------- 0 0.1 2.0 1 9
- 5.392663 0 2 tcp 40 ------- 0 0.1 2.0 1 9
+ 5.392663 0 2 tcp 40 ------- 0 0.1 2.0 1 10
+ 5.392663 0 2 tcp 85 ------- 0 0.1 2.0 1 11
- 5.392876 0 2 tcp 40 ------- 0 0.1 2.0 1 10
- 5.393089 0 2 tcp 85 ------- 0 0.1 2.0 1 11
r 5.393876 0 2 tcp 40 ------- 0 0.1 2.0 1 9
+ 5.393876 2 0 ack 40 ------- 0 2.0 0.1 1 12
- 5.393876 2 0 ack 40 ------- 0 2.0 0.1 1 12
r 5.394089 0 2 tcp 40 ------- 0 0.1 2.0 1 10
r 5.394543 0 2 tcp 85 ------- 0 0.1 2.0 1 11
r 5.395089 2 0 ack 40 ------- 0 2.0 0.1 1 12
+ 5.395089 0 2 tcp 40 ------- 0 0.1 2.0 46 13
- 5.395089 0 2 tcp 40 ------- 0 0.1 2.0 46 13
r 5.396303 0 2 tcp 40 ------- 0 0.1 2.0 46 13
+ 5.44146 1 0 tcp 40 ------- 0 1.2 0.0 0 14
- 5.44146 1 0 tcp 40 ------- 0 1.2 0.0 0 14
r 5.442673 1 0 tcp 40 ------- 0 1.2 0.0 0 14
+ 5.442673 0 1 ack 40 ------- 0 0.0 1.2 0 15
- 5.442673 0 1 ack 40 ------- 0 0.0 1.2 0 15
r 5.443886 0 1 ack 40 ------- 0 0.0 1.2 0 15
+ 5.443886 1 0 tcp 40 ------- 0 1.2 0.0 1 16
- 5.443886 1 0 tcp 40 ------- 0 1.2 0.0 1 16
+ 5.443886 1 0 tcp 40 ------- 0 1.2 0.0 1 17
+ 5.443886 1 0 tcp 85 ------- 0 1.2 0.0 1 18
- 5.4441 1 0 tcp 40 ------- 0 1.2 0.0 1 17
- 5.444313 1 0 tcp 85 ------- 0 1.2 0.0 1 18
r 5.4451 1 0 tcp 40 ------- 0 1.2 0.0 1 16
+ 5.4451 0 1 ack 40 ------- 0 0.0 1.2 1 19
- 5.4451 0 1 ack 40 ------- 0 0.0 1.2 1 19
r 5.445313 1 0 tcp 40 ------- 0 1.2 0.0 1 17
r 5.445766 1 0 tcp 85 ------- 0 1.2 0.0 1 18
r 5.446313 0 1 ack 40 ------- 0 0.0 1.2 1 19
+ 5.446313 1 0 tcp 40 ------- 0 1.2 0.0 46 20
- 5.446313 1 0 tcp 40 ------- 0 1.2 0.0 46 20
r 5.447526 1 0 tcp 40 ------- 0 1.2 0.0 46 20
+ 5.498647 2 1 tcp 85 ------- 0 2.1 1.0 1 21
- 5.498647 2 1 tcp 85 ------- 0 2.1 1.0 1 21
r 5.5001 2 1 tcp 85 ------- 0 2.1 1.0 1 21
+ 5.5001 1 2 ack 40 ------- 0 1.0 2.1 2 22
- 5.5001 1 2 ack 40 ------- 0 1.0 2.1 2 22
r 5.501313 1 2 ack 40 ------- 0 1.0 2.1 2 22
+ 5.501313 2 1 tcp 40 ------- 0 2.1 1.0 46 23
- 5.501313 2 1 tcp 40 ------- 0 2.1 1.0 46 23
r 5.502527 2 1 tcp 40 ------- 0 2.1 1.0 46 23
+ 5.502527 1 2 ack 40 ------- 0 1.0 2.1 2 24
- 5.502527 1 2 ack 40 ------- 0 1.0 2.1 2 24
r 5.50374 1 2 ack 40 ------- 0 1.0 2.1 2 24
+ 5.592663 0 2 tcp 85 ------- 0 0.1 2.0 1 25
- 5.592663 0 2 tcp 85 ------- 0 0.1 2.0 1 25
r 5.594116 0 2 tcp 85 ------- 0 0.1 2.0 1 25
+ 5.594116 2 0 ack 40 ------- 0 2.0 0.1 2 26
- 5.594116 2 0 ack 40 ------- 0 2.0 0.1 2 26
r 5.595329 2 0 ack 40 ------- 0 2.0 0.1 2 26
+ 5.595329 0 2 tcp 40 ------- 0 0.1 2.0 46 27
- 5.595329 0 2 tcp 40 ------- 0 0.1 2.0 46 27
r 5.596543 0 2 tcp 40 ------- 0 0.1 2.0 46 27
+ 5.596543 2 0 ack 40 ------- 0 2.0 0.1 2 28
- 5.596543 2 0 ack 40 ------- 0 2.0 0.1 2 28
r 5.597756 2 0 ack 40 ------- 0 2.0 0.1 2 28
+ 5.643886 1 0 tcp 85 ------- 0 1.2 0.0 1 29
- 5.643886 1 0 tcp 85 ------- 0 1.2 0.0 1 29
r 5.64534 1 0 tcp 85 ------- 0 1.2 0.0 1 29
+ 5.64534 0 1 ack 40 ------- 0 0.0 1.2 2 30
- 5.64534 0 1 ack 40 ------- 0 0.0 1.2 2 30
r 5.646553 0 1 ack 40 ------- 0 0.0 1.2 2 30
+ 5.646553 1 0 tcp 40 ------- 0 1.2 0.0 46 31
- 5.646553 1 0 tcp 40 ------- 0 1.2 0.0 46 31
r 5.647766 1 0 tcp 40 ------- 0 1.2 0.0 46 31
+ 5.647766 0 1 ack 40 ------- 0 0.0 1.2 2 32
- 5.647766 0 1 ack 40 ------- 0 0.0 1.2 2 32
r 5.64898 0 1 ack 40 ------- 0 0.0 1.2 2 32
+ 6.311302 0 1 tcp 40 ------- 0 0.3 1.1 0 33
- 6.311302 0 1 tcp 40 ------- 0 0.3 1.1 0 33
r 6.312515 0 1 tcp 40 ------- 0 0.3 1.1 0 33
+ 6.312515 1 0 ack 40 ------- 0 1.1 0.3 0 34
- 6.312515 1 0 ack 40 ------- 0 1.1 0.3 0 34
r 6.313728 1 0 ack 40 ------- 0 1.1 0.3 0 34
+ 6.313728 0 1 tcp 40 ------- 0 0.3 1.1 1 35
- 6.313728 0 1 tcp 40 ------- 0 0.3 1.1 1 35
+ 6.313728 0 1 tcp 40 ------- 0 0.3 1.1 1 36
+ 6.313728 0 1 tcp 85 ------- 0 0.3 1.1 1 37
- 6.313942 0 1 tcp 40 ------- 0 0.3 1.1 1 36
- 6.314155 0 1 tcp 85 ------- 0 0.3 1.1 1 37
r 6.314942 0 1 tcp 40 ------- 0 0.3 1.1 1 35
r 6.315155 0 1 tcp 40 ------- 0 0.3 1.1 1 36
r 6.315608 0 1 tcp 85 ------- 0 0.3 1.1 1 37
+ 6.315608 1 0 ack 85 ------- 0 1.1 0.3 1 38
- 6.315608 1 0 ack 85 ------- 0 1.1 0.3 1 38
r 6.317062 1 0 ack 85 ------- 0 1.1 0.3 1 38
+ 6.317062 0 1 tcp 59 ------- 0 0.3 1.1 46 39
- 6.317062 0 1 tcp 59 ------- 0 0.3 1.1 46 39
r 6.318376 0 1 tcp 59 ------- 0 0.3 1.1 46 39
+ 6.318376 1 0 ack 59 ------- 0 1.1 0.3 46 40
- 6.318376 1 0 ack 59 ------- 0 1.1 0.3 46 40
r 6.319691 1 0 ack 59 ------- 0 1.1 0.3 46 40
+ 6.319691 0 1 tcp 59 ------- 0 0.3 1.1 65 41
- 6.319691 0 1 tcp 59 ------- 0 0.3 1.1 65 41
r 6.321006 0 1 tcp 59 ------- 0 0.3 1.1 65 41
+ 6.321006 1 0 ack 59 ------- 0 1.1 0.3 65 42
- 6.321006 1 0 ack 59 ------- 0 1.1 0.3 65 42
r 6.32232 1 0 ack 59 ------- 0 1.1 0.3 65 42
+ 6.4 0 1 tcp 40 ------- 0 0.3 1.1 84 43
- 6.4 0 1 tcp 40 ------- 0 0.3 1.1 84 43
r 6.401213 0 1 tcp 40 ------- 0 0.3 1.1 84 43
+ 6.466273 3 1 tcp 40 ------- 0 3.1 1.3 0 44
- 6.466273 3 1 tcp 40 ------- 0 3.1 1.3 0 44
r 6.467486 3 1 tcp 40 ------- 0 3.1 1.3 0 44
+ 6.467486 1 3 ack 40 ------- 0 1.3 3.1 0 45
- 6.467486 1 3 ack 40 ------- 0 1.3 3.1 0 45
r 6.4687 1 3 ack 40 ------- 0 1.3 3.1 0 45
+ 6.4687 3 1 tcp 40 ------- 0 3.1 1.3 1 46
- 6.4687 3 1 tcp 40 ------- 0 3.1 1.3 1 46
+ 6.4687 3 1 tcp 40 ------- 0 3.1 1.3 1 47
+ 6.4687 3 1 tcp 85 ------- 0 3.1 1.3 1 48
- 6.468913 3 1 tcp 40 ------- 0 3.1 1.3 1 47
- 6.469126 3 1 tcp 85 ------- 0 3.1 1.3 1 48
r 6.469913 3 1 tcp 40 ------- 0 3.1 1.3 1 46
+ 6.469913 1 3 ack 40 ------- 0 1.3 3.1 1 49
- 6.469913 1 3 ack 40 ------- 0 1.3 3.1 1 49
r 6.470126 3 1 tcp 40 ------- 0 3.1 1.3 1 47
r 6.47058 3 1 tcp 85 ------- 0 3.1 1.3 1 48
r 6.471126 1 3 ack 40 ------- 0 1.3 3.1 1 49
+ 6.471126 3 1 tcp 40 ------- 0 3.1 1.3 46 50
- 6.471126 3 1 tcp 40 ------- 0 3.1 1.3 46 50
r 6.47234 3 1 tcp 40 ------- 0 3.1 1.3 46 50
+ 6.6687 3 1 tcp 85 ------- 0 3.1 1.3 1 51
- 6.6687 3 1 tcp 85 ------- 0 3.1 1.3 1 51
r 6.670153 3 1 tcp 85 ------- 0 3.1 1.3 1 51
+ 6.670153 1 3 ack 40 ------- 0 1.3 3.1 2 52
- 6.670153 1 3 ack 40 ------- 0 1.3 3.1 2 52
r 6.671366 1 3 ack 40 ------- 0 1.3 3.1 2 52
+ 6.671366 3 1 tcp 40 ------- 0 3.1 1.3 46 53
- 6.671366 3 1 tcp 40 ------- 0 3.1 1.3 46 53
r 6.67258 3 1 tcp 40 ------- 0 3.1 1.3 46 53
+ 6.67258 1 3 ack 40 ------- 0 1.3 3.1 2 54
- 6.67258 1 3 ack 40 ------- 0 1.3 3.1 2 54
r 6.673793 1 3 ack 40 ------- 0 1.3 3.1 2 54
+ 6.88773 0 3 tcp 40 ------- 0 0.4 3.0 0 55
- 6.88773 0 3 tcp 40 ------- 0 0.4 3.0 0 55
r 6.888944 0 3 tcp 40 ------- 0 0.4 3.0 0 55
+ 6.888944 3 0 ack 40 ------- 0 3.0 0.4 0 56
- 6.888944 3 0 ack 40 ------- 0 3.0 0.4 0 56
r 6.890157 3 0 ack 40 ------- 0 3.0 0.4 0 56
+ 6.890157 0 3 tcp 40 ------- 0 0.4 3.0 1 57
- 6.890157 0 3 tcp 40 ------- 0 0.4 3.0 1 57
+ 6.890157 0 3 tcp 40 ------- 0 0.4 3.0 1 58
+ 6.890157 0 3 tcp 85 ------- 0 0.4 3.0 1 59
- 6.89037 0 3 tcp 40 ------- 0 0.4 3.0 1 58
- 6.890584 0 3 tcp 85 ------- 0 0.4 3.0 1 59
r 6.89137 0 3 tcp 40 ------- 0 0.4 3.0 1 57
+ 6.89137 3 0 ack 40 ------- 0 3.0 0.4 1 60
- 6.89137 3 0 ack 40 ------- 0 3.0 0.4 1 60
r 6.891584 0 3 tcp 40 ------- 0 0.4 3.0 1 58
r 6.892037 0 3 tcp 85 ------- 0 0.4 3.0 1 59
r 6.892584 3 0 ack 40 ------- 0 3.0 0.4 1 60
+ 6.892584 0 3 tcp 40 ------- 0 0.4 3.0 46 61
- 6.892584 0 3 tcp 40 ------- 0 0.4 3.0 46 61
r 6.893797 0 3 tcp 40 ------- 0 0.4 3.0 46 61
+ 7.059093 1 3 tcp 40 ------- 0 1.5 3.2 0 62
- 7.059093 1 3 tcp 40 ------- 0 1.5 3.2 0 62
r 7.060307 1 3 tcp 40 ------- 0 1.5 3.2 0 62
+ 7.060307 3 1 ack 40 ------- 0 3.2 1.5 0 63
- 7.060307 3 1 ack 40 ------- 0 3.2 1.5 0 63
r 7.06152 3 1 ack 40 ------- 0 3.2 1.5 0 63
+ 7.06152 1 3 tcp 40 ------- 0 1.5 3.2 1 64
- 7.06152 1 3 tcp 40 ------- 0 1.5 3.2 1 64
+ 7.06152 1 3 tcp 40 ------- 0 1.5 3.2 1 65
+ 7.06152 1 3 tcp 85 ------- 0 1.5 3.2 1 66
- 7.061733 1 3 tcp 40 ------- 0 1.5 3.2 1 65
- 7.061947 1 3 tcp 85 ------- 0 1.5 3.2 1 66
r 7.062733 1 3 tcp 40 ------- 0 1.5 3.2 1 64
r 7.062947 1 3 tcp 40 ------- 0 1.5 3.2 1 65
r 7.0634 1 3 tcp 85 ------- 0 1.5 3.2 1 66
+ 7.0634 3 1 ack 85 ------- 0 3.2 1.5 1 67
- 7.0634 3 1 ack 85 ------- 0 3.2 1.5 1 67
r 7.064853 3 1 ack 85 ------- 0 3.2 1.5 1 67
+ 7.064853 1 3 tcp 59 ------- 0 1.5 3.2 46 68
- 7.064853 1 3 tcp 59 ------- 0 1.5 3.2 46 68
r 7.066168 1 3 tcp 59 ------- 0 1.5 3.2 46 68
+ 7.066168 3 1 ack 59 ------- 0 3.2 1.5 46 69
- 7.066168 3 1 ack 59 ------- 0 3.2 1.5 46 69
r 7.067483 3 1 ack 59 ------- 0 3.2 1.5 46 69
+ 7.067483 1 3 tcp 59 ------- 0 1.5 3.2 65 70
- 7.067483 1 3 tcp 59 ------- 0 1.5 3.2 65 70
r 7.068797 1 3 tcp 59 ------- 0 1.5 3.2 65 70
+ 7.068797 3 1 ack 59 ------- 0 3.2 1.5 65 71
- 7.068797 3 1 ack 59 ------- 0 3.2 1.5 65 71
r 7.070112 3 1 ack 59 ------- 0 3.2 1.5 65 71
+ 7.090157 0 3 tcp 85 ------- 0 0.4 3.0 1 72
- 7.090157 0 3 tcp 85 ------- 0 0.4 3.0 1 72
r 7.09161 0 3 tcp 85 ------- 0 0.4 3.0 1 72
+ 7.09161 3 0 ack 40 ------- 0 3.0 0.4 2 73
- 7.09161 3 0 ack 40 ------- 0 3.0 0.4 2 73
r 7.092824 3 0 ack 40 ------- 0 3.0 0.4 2 73
+ 7.092824 0 3 tcp 40 ------- 0 0.4 3.0 46 74
- 7.092824 0 3 tcp 40 ------- 0 0.4 3.0 46 74
r 7.094037 0 3 tcp 40 ------- 0 0.4 3.0 46 74
+ 7.094037 3 0 ack 40 ------- 0 3.0 0.4 2 75
- 7.094037 3 0 ack 40 ------- 0 3.0 0.4 2 75
r 7.09525 3 0 ack 40 ------- 0 3.0 0.4 2 75
+ 7.1 1 3 tcp 40 ------- 0 1.5 3.2 84 76
- 7.1 1 3 tcp 40 ------- 0 1.5 3.2 84 76
r 7.101213 1 3 tcp 40 ------- 0 1.5 3.2 84 76
+ 7.182214 2 0 tcp 40 ------- 0 2.3 0.2 0 77
- 7.182214 2 0 tcp 40 ------- 0 2.3 0.2 0 77
r 7.183428 2 0 tcp 40 ------- 0 2.3 0.2 0 77
+ 7.183428 0 2 ack 40 ------- 0 0.2 2.3 0 78
- 7.183428 0 2 ack 40 ------- 0 0.2 2.3 0 78
r 7.184641 0 2 ack 40 ------- 0 0.2 2.3 0 78
+ 7.184641 2 0 tcp 40 ------- 0 2.3 0.2 1 79
- 7.184641 2 0 tcp 40 ------- 0 2.3 0.2 1 79
+ 7.184641 2 0 tcp 40 ------- 0 2.3 0.2 1 80
+ 7.184641 2 0 tcp 85 ------- 0 2.3 0.2 1 81
- 7.184854 2 0 tcp 40 ------- 0 2.3 0.2 1 80
- 7.185068 2 0 tcp 85 ------- 0 2.3 0.2 1 81
r 7.185854 2 0 tcp 40 ------- 0 2.3 0.2 1 79
r 7.186068 2 0 tcp 40 ------- 0 2.3 0.2 1 80
r 7.186521 2 0 tcp 85 ------- 0 2.3 0.2 1 81
+ 7.186521 0 2 ack 85 ------- 0 0.2 2.3 1 82
- 7.186521 0 2 ack 85 ------- 0 0.2 2.3 1 82
r 7.187974 0 2 ack 85 ------- 0 0.2 2.3 1 82
+ 7.187974 2 0 tcp 59 ------- 0 2.3 0.2 46 83
- 7.187974 2 0 tcp 59 ------- 0 2.3 0.2 46 83
r 7.189289 2 0 tcp 59 ------- 0 2.3 0.2 46 83
+ 7.189289 0 2 ack 59 ------- 0 0.2 2.3 46 84
- 7.189289 0 2 ack 59 ------- 0 0.2 2.3 46 84
r 7.190604 0 2 ack 59 ------- 0 0.2 2.3 46 84
+ 7.190604 2 0 tcp 59 ------- 0 2.3 0.2 65 85
- 7.190604 2 0 tcp 59 ------- 0 2.3 0.2 65 85
r 7.191918 2 0 tcp 59 ------- 0 2.3 0.2 65 85
+ 7.191918 0 2 ack 59 ------- 0 0.2 2.3 65 86
- 7.191918 0 2 ack 59 ------- 0 0.2 2.3 65 86
r 7.193233 0 2 ack 59 ------- 0 0.2 2.3 65 86
+ 7.2 2 0 tcp 40 ------- 0 2.3 0.2 84 87
- 7.2 2 0 tcp 40 ------- 0 2.3 0.2 84 87
r 7.201213 2 0 tcp 40 ------- 0 2.3 0.2 84 87
+ 7.842528 3 2 tcp 40 ------- 0 3.4 2.2 0 88
- 7.842528 3 2 tcp 40 ------- 0 3.4 2.2 0 88
r 7.843742 3 2 tcp 40 ------- 0 3.4 2.2 0 88
+ 7.843742 2 3 ack 40 ------- 0 2.2 3.4 0 89
- 7.843742 2 3 ack 40 ------- 0 2.2 3.4 0 89
r 7.844955 2 3 ack 40 ------- 0 2.2 3.4 0 89
+ 7.844955 3 2 tcp 40 ------- 0 3.4 2.2 1 90
- 7.844955 3 2 tcp 40 ------- 0 3.4 2.2 1 90
+ 7.844955 3 2 tcp 40 ------- 0 3.4 2.2 1 91
+ 7.844955 3 2 tcp 85 ------- 0 3.4 2.2 1 92
- 7.845168 3 2 tcp 40 ------- 0 3.4 2.2 1 91
- 7.845382 3 2 tcp 85 ------- 0 3.4 2.2 1 92
r 7.846168 3 2 tcp 40 ------- 0 3.4 2.2 1 90
+ 7.846168 2 3 ack 40 ------- 0 2.2 3.4 1 93
- 7.846168 2 3 ack 40 ------- 0 2.2 3.4 1 93
r 7.846382 3 2 tcp 40 ------- 0 3.4 2.2 1 91
r 7.846835 3 2 tcp 85 ------- 0 3.4 2.2 1 92
r 7.847382 2 3 ack 40 ------- 0 2.2 3.4 1 93
+ 7.847382 3 2 tcp 40 ------- 0 3.4 2.2 46 94
- 7.847382 3 2 tcp 40 ------- 0 3.4 2.2 46 94
r 7.848595 3 2 tcp 40 ------- 0 3.4 2.2 46 94
+ 8.044955 3 2 tcp 85 ------- 0 3.4 2.2 1 95
- 8.044955 3 2 tcp 85 ------- 0 3.4 2.2 1 95
r 8.046408 3 2 tcp 85 ------- 0 3.4 2.2 1 95
+ 8.046408 2 3 ack 40 ------- 0 2.2 3.4 2 96
- 8.046408 2 3 ack 40 ------- 0 2.2 3.4 2 96
r 8.047622 2 3 ack 40 ------- 0 2.2 3.4 2 96
+ 8.047622 3 2 tcp 40 ------- 0 3.4 2.2 46 97
- 8.047622 3 2 tcp 40 ------- 0 3.4 2.2 46 97
r 8.048835 3 2 tcp 40 ------- 0 3.4 2.2 46 97
+ 8.048835 2 3 ack 40 ------- 0 2.2 3.4 2 98
- 8.048835 2 3 ack 40 ------- 0 2.2 3.4 2 98
r 8.050048 2 3 ack 40 ------- 0 2.2 3.4 2 98
+ 8.333595 2 3 tcp 40 ------- 0 2.5 3.3 0 99
- 8.333595 2 3 tcp 40 ------- 0 2.5 3.3 0 99
r 8.334808 2 3 tcp 40 ------- 0 2.5 3.3 0 99
+ 8.334808 3 2 ack 40 ------- 0 3.3 2.5 0 100
- 8.334808 3 2 ack 40 ------- 0 3.3 2.5 0 100
r 8.336021 3 2 ack 40 ------- 0 3.3 2.5 0 100
+ 8.336021 2 3 tcp 40 ------- 0 2.5 3.3 1 101
- 8.336021 2 3 tcp 40 ------- 0 2.5 3.3 1 101
+ 8.336021 2 3 tcp 40 ------- 0 2.5 3.3 1 102
+ 8.336021 2 3 tcp 85 ------- 0 2.5 3.3 1 103
- 8.336235 2 3 tcp 40 ------- 0 2.5 3.3 1 102
- 8.336448 2 3 tcp 85 ------- 0 2.5 3.3 1 103
r 8.337235 2 3 tcp 40 ------- 0 2.5 3.3 1 101
r 8.337448 2 3 tcp 40 ------- 0 2.5 3.3 1 102
r 8.337901 2 3 tcp 85 ------- 0 2.5 3.3 1 103
+ 8.337901 3 2 ack 85 ------- 0 3.3 2.5 1 104
- 8.337901 3 2 ack 85 ------- 0 3.3 2.5 1 104
r 8.339355 3 2 ack 85 ------- 0 3.3 2.5 1 104
+ 8.339355 2 3 tcp 59 ------- 0 2.5 3.3 46 105
- 8.339355 2 3 tcp 59 ------- 0 2.5 3.3 46 105
r 8.340669 2 3 tcp 59 ------- 0 2.5 3.3 46 105
+ 8.340669 3 2 ack 59 ------- 0 3.3 2.5 46 106
- 8.340669 3 2 ack 59 ------- 0 3.3 2.5 46 106
r 8.341984 3 2 ack 59 ------- 0 3.3 2.5 46 106
+ 8.341984 2 3 tcp 59 ------- 0 2.5 3.3 65 107
- 8.341984 2 3 tcp 59 ------- 0 2.5 3.3 65 107
r 8.343299 2 3 tcp 59 ------- 0 2.5 3.3 65 107
+ 8.343299 3 2 ack 59 ------- 0 3.3 2.5 65 108
- 8.343299 3 2 ack 59 ------- 0 3.3 2.5 65 108
r 8.344613 3 2 ack 59 ------- 0 3.3 2.5 65 108
+ 8.4 2 3 tcp 40 ------- 0 2.5 3.3 84 109
- 8.4 2 3 tcp 40 ------- 0 2.5 3.3 84 109
r 8.401213 2 3 tcp 40 ------- 0 2.5 3.3 84 109
+ 8.630885 3 0 tcp 40 ------- 0 3.6 0.5 0 110
- 8.630885 3 0 tcp 40 ------- 0 3.6 0.5 0 110
r 8.632098 3 0 tcp 40 ------- 0 3.6 0.5 0 110
+ 8.632098 0 3 ack 40 ------- 0 0.5 3.6 0 111
- 8.632098 0 3 ack 40 ------- 0 0.5 3.6 0 111
r 8.633311 0 3 ack 40 ------- 0 0.5 3.6 0 111
+ 8.633311 3 0 tcp 40 ------- 0 3.6 0.5 1 112
- 8.633311 3 0 tcp 40 ------- 0 3.6 0.5 1 112
+ 8.633311 3 0 tcp 40 ------- 0 3.6 0.5 1 113
+ 8.633311 3 0 tcp 85 ------- 0 3.6 0.5 1 114
- 8.633525 3 0 tcp 40 ------- 0 3.6 0.5 1 113
- 8.633738 3 0 tcp 85 ------- 0 3.6 0.5 1 114
r 8.634525 3 0 tcp 40 ------- 0 3.6 0.5 1 112
r 8.634738 3 0 tcp 40 ------- 0 3.6 0.5 1 113
r 8.635191 3 0 tcp 85 ------- 0 3.6 0.5 1 114
+ 8.635191 0 3 ack 85 ------- 0 0.5 3.6 1 115
- 8.635191 0 3 ack 85 ------- 0 0.5 3.6 1 115
r 8.636645 0 3 ack 85 ------- 0 0.5 3.6 1 115
+ 8.636645 3 0 tcp 59 ------- 0 3.6 0.5 46 116
- 8.636645 3 0 tcp 59 ------- 0 3.6 0.5 46 116
r 8.637959 3 0 tcp 59 ------- 0 3.6 0.5 46 116
+ 8.637959 0 3 ack 59 ------- 0 0.5 3.6 46 117
- 8.637959 0 3 ack 59 ------- 0 0.5 3.6 46 117
r 8.639274 0 3 ack 59 ------- 0 0.5 3.6 46 117
+ 8.639274 3 0 tcp 59 ------- 0 3.6 0.5 65 118
- 8.639274 3 0 tcp 59 ------- 0 3.6 0.5 65 118
r 8.640589 3 0 tcp 59 ------- 0 3.6 0.5 65 118
+ 8.640589 0 3 ack 59 ------- 0 0.5 3.6 65 119
- 8.640589 0 3 ack 59 ------- 0 0.5 3.6 65 119
r 8.641903 0 3 ack 59 ------- 0 0.5 3.6 65 119
+ 8.643128 1 2 tcp 40 ------- 0 1.6 2.4 0 120
- 8.643128 1 2 tcp 40 ------- 0 1.6 2.4 0 120
r 8.644342 1 2 tcp 40 ------- 0 1.6 2.4 0 120
+ 8.644342 2 1 ack 40 ------- 0 2.4 1.6 0 121
- 8.644342 2 1 ack 40 ------- 0 2.4 1.6 0 121
r 8.645555 2 1 ack 40 ------- 0 2.4 1.6 0 121
+ 8.645555 1 2 tcp 40 ------- 0 1.6 2.4 1 122
- 8.645555 1 2 tcp 40 ------- 0 1.6 2.4 1 122
+ 8.645555 1 2 tcp 40 ------- 0 1.6 2.4 1 123
+ 8.645555 1 2 tcp 85 ------- 0 1.6 2.4 1 124
- 8.645768 1 2 tcp 40 ------- 0 1.6 2.4 1 123
- 8.645982 1 2 tcp 85 ------- 0 1.6 2.4 1 124
r 8.646768 1 2 tcp 40 ------- 0 1.6 2.4 1 122
r 8.646982 1 2 tcp 40 ------- 0 1.6 2.4 1 123
r 8.647435 1 2 tcp 85 ------- 0 1.6 2.4 1 124
+ 8.647435 2 1 ack 85 ------- 0 2.4 1.6 1 125
- 8.647435 2 1 ack 85 ------- 0 2.4 1.6 1 125
r 8.648888 2 1 ack 85 ------- 0 2.4 1.6 1 125
+ 8.648888 1 2 tcp 59 ------- 0 1.6 2.4 46 126
- 8.648888 1 2 tcp 59 ------- 0 1.6 2.4 46 126
r 8.650203 1 2 tcp 59 ------- 0 1.6 2.4 46 126
+ 8.650203 2 1 ack 59 ------- 0 2.4 1.6 46 127
- 8.650203 2 1 ack 59 ------- 0 2.4 1.6 46 127
r 8.651518 2 1 ack 59 ------- 0 2.4 1.6 46 127
+ 8.651518 1 2 tcp 59 ------- 0 1.6 2.4 65 128
- 8.651518 1 2 tcp 59 ------- 0 1.6 2.4 65 128
r 8.652832 1 2 tcp 59 ------- 0 1.6 2.4 65 128
+ 8.652832 2 1 ack 59 ------- 0 2.4 1.6 65 129
- 8.652832 2 1 ack 59 ------- 0 2.4 1.6 65 129
r 8.654147 2 1 ack 59 ------- 0 2.4 1.6 65 129
+ 8.7 3 0 tcp 40 ------- 0 3.6 0.5 84 130
- 8.7 3 0 tcp 40 ------- 0 3.6 0.5 84 130
+ 8.7 1 2 tcp 40 ------- 0 1.6 2.4 84 131
- 8.7 1 2 tcp 40 ------- 0 1.6 2.4 84 131
r 8.701213 3 0 tcp 40 ------- 0 3.6 0.5 84 130
r 8.701213 1 2 tcp 40 ------- 0 1.6 2.4 84 131
+ 20 3 0 tcp 85 ---A--- 0 3.6 0.5 84 132
- 20 3 0 tcp 85 ---A--- 0 3.6 0.5 84 132
+ 20 3 1 ack 85 ---A--- 0 3.2 1.5 84 133
- 20 3 1 ack 85 ---A--- 0 3.2 1.5 84 133
+ 20 3 2 ack 85 ---A--- 0 3.3 2.5 84 134
- 20 3 2 ack 85 ---A--- 0 3.3 2.5 84 134
r 20.001453 3 0 tcp 85 ---A--- 0 3.6 0.5 84 132
r 20.001453 3 1 ack 85 ---A--- 0 3.2 1.5 84 133
r 20.001453 3 2 ack 85 ---A--- 0 3.3 2.5 84 134
+ 20.001453 0 1 tcp 87 ---A--- 0 0.3 1.1 84 135
- 20.001453 0 1 tcp 87 ---A--- 0 0.3 1.1 84 135
+ 20.001453 1 0 ack 87 ---A--- 0 1.1 0.3 84 136
- 20.001453 1 0 ack 87 ---A--- 0 1.1 0.3 84 136
+ 20.001453 2 0 tcp 87 ---A--- 0 2.3 0.2 84 137
- 20.001453 2 0 tcp 87 ---A--- 0 2.3 0.2 84 137
+ 20.001453 0 2 ack 87 ---A--- 0 0.2 2.3 84 138
- 20.001453 0 2 ack 87 ---A--- 0 0.2 2.3 84 138
+ 20.001453 1 2 tcp 87 ---A--- 0 1.6 2.4 84 139
- 20.001453 1 2 tcp 87 ---A--- 0 1.6 2.4 84 139
+ 20.001453 2 1 ack 87 ---A--- 0 2.4 1.6 84 140
- 20.001453 2 1 ack 87 ---A--- 0 2.4 1.6 84 140
r 20.002917 0 1 tcp 87 ---A--- 0 0.3 1.1 84 135
r 20.002917 1 0 ack 87 ---A--- 0 1.1 0.3 84 136
r 20.002917 2 0 tcp 87 ---A--- 0 2.3 0.2 84 137
r 20.002917 0 2 ack 87 ---A--- 0 0.2 2.3 84 138
r 20.002917 1 2 tcp 87 ---A--- 0 1.6 2.4 84 139
r 20.002917 2 1 ack 87 ---A--- 0 2.4 1.6 84 140
+ 20.1 1 0 ack 40 ------- 0 1.1 0.3 131 141
- 20.1 1 0 ack 40 ------- 0 1.1 0.3 131 141
+ 20.1 0 1 tcp 40 ------- 0 0.3 1.1 131 142
- 20.1 0 1 tcp 40 ------- 0 0.3 1.1 131 142
+ 20.1 1 3 tcp 40 ------- 0 1.5 3.2 84 143
- 20.1 1 3 tcp 40 ------- 0 1.5 3.2 84 143
+ 20.1 0 2 ack 40 ------- 0 0.2 2.3 131 144
- 20.1 0 2 ack 40 ------- 0 0.2 2.3 131 144
+ 20.1 2 0 tcp 40 ------- 0 2.3 0.2 131 145
- 20.1 2 0 tcp 40 ------- 0 2.3 0.2 131 145
+ 20.1 2 3 tcp 40 ------- 0 2.5 3.3 84 146
- 20.1 2 3 tcp 40 ------- 0 2.5 3.3 84 146
+ 20.1 0 3 ack 40 ------- 0 0.5 3.6 84 147
- 20.1 0 3 ack 40 ------- 0 0.5 3.6 84 147
+ 20.1 2 1 ack 40 ------- 0 2.4 1.6 131 148
- 20.1 2 1 ack 40 ------- 0 2.4 1.6 131 148
+ 20.1 1 2 tcp 40 ------- 0 1.6 2.4 131 149
- 20.1 1 2 tcp 40 ------- 0 1.6 2.4 131 149
r 20.101213 1 0 ack 40 ------- 0 1.1 0.3 131 141
r 20.101213 0 1 tcp 40 ------- 0 0.3 1.1 131 142
r 20.101213 1 3 tcp 40 ------- 0 1.5 3.2 84 143
r 20.101213 0 2 ack 40 ------- 0 0.2 2.3 131 144
r 20.101213 2 0 tcp 40 ------- 0 2.3 0.2 131 145
r 20.101213 2 3 tcp 40 ------- 0 2.5 3.3 84 146
r 20.101213 0 3 ack 40 ------- 0 0.5 3.6 84 147
r 20.101213 2 1 ack 40 ------- 0 2.4 1.6 131 148
r 20.101213 1 2 tcp 40 ------- 0 1.6 2.4 131 149
+ 55 3 0 tcp 67 ---A--- 0 3.6 0.5 129 150
- 55 3 0 tcp 67 ---A--- 0 3.6 0.5 129 150
+ 55 3 1 ack 67 ---A--- 0 3.2 1.5 129 151
- 55 3 1 ack 67 ---A--- 0 3.2 1.5 129 151
+ 55 3 2 ack 67 ---A--- 0 3.3 2.5 129 152
- 55 3 2 ack 67 ---A--- 0 3.3 2.5 129 152
r 55.001357 3 0 tcp 67 ---A--- 0 3.6 0.5 129 150
r 55.001357 3 1 ack 67 ---A--- 0 3.2 1.5 129 151
r 55.001357 3 2 ack 67 ---A--- 0 3.3 2.5 129 152
+ 55.001357 0 1 tcp 67 ---A--- 0 0.3 1.1 131 153
- 55.001357 0 1 tcp 67 ---A--- 0 0.3 1.1 131 153
+ 55.001357 1 0 ack 67 ---A--- 0 1.1 0.3 131 154
- 55.001357 1 0 ack 67 ---A--- 0 1.1 0.3 131 154
+ 55.001357 2 0 tcp 67 ---A--- 0 2.3 0.2 131 155
- 55.001357 2 0 tcp 67 ---A--- 0 2.3 0.2 131 155
+ 55.001357 0 2 ack 89 ---A--- 0 0.2 2.3 131 156
- 55.001357 0 2 ack 89 ---A--- 0 0.2 2.3 131 156
+ 55.001357 1 2 tcp 89 ---A--- 0 1.6 2.4 131 157
- 55.001357 1 2 tcp 89 ---A--- 0 1.6 2.4 131 157
+ 55.001357 2 1 ack 89 ---A--- 0 2.4 1.6 131 158
- 55.001357 2 1 ack 89 ---A--- 0 2.4 1.6 131 158
+ 55.001357 0 3 ack 89 ---A--- 0 0.5 3.6 84 159
- 55.001357 0 3 ack 89 ---A--- 0 0.5 3.6 84 159
+ 55.001357 1 3 tcp 89 ---A--- 0 1.5 3.2 84 160
- 55.001357 1 3 tcp 89 ---A--- 0 1.5 3.2 84 160
+ 55.001357 2 3 tcp 89 ---A--- 0 2.5 3.3 84 161
- 55.001357 2 3 tcp 89 ---A--- 0 2.5 3.3 84 161
r 55.002715 0 1 tcp 67 ---A--- 0 0.3 1.1 131 153
r 55.002715 1 0 ack 67 ---A--- 0 1.1 0.3 131 154
r 55.002715 2 0 tcp 67 ---A--- 0 2.3 0.2 131 155
r 55.002832 0 2 ack 89 ---A--- 0 0.2 2.3 131 156
r 55.002832 1 2 tcp 89 ---A--- 0 1.6 2.4 131 157
r 55.002832 2 1 ack 89 ---A--- 0 2.4 1.6 131 158
r 55.002832 0 3 ack 89 ---A--- 0 0.5 3.6 84 159
r 55.002832 1 3 tcp 89 ---A--- 0 1.5 3.2 84 160
r 55.002832 2 3 tcp 89 ---A--- 0 2.5 3.3 84 161
+ 55.1 1 0 ack 140 ------- 0 1.1 0.3 158 162
- 55.1 1 0 ack 140 ------- 0 1.1 0.3 158 162
+ 55.1 0 1 tcp 116 ------- 0 0.3 1.1 158 163
- 55.1 0 1 tcp 116 ------- 0 0.3 1.1 158 163
+ 55.1 3 1 ack 40 ------- 0 3.2 1.5 156 164
- 55.1 3 1 ack 40 ------- 0 3.2 1.5 156 164
+ 55.1 0 2 ack 67 ------- 0 0.2 2.3 180 165
- 55.1 0 2 ack 67 ------- 0 0.2 2.3 180 165
+ 55.1 2 0 tcp 140 ------- 0 2.3 0.2 158 166
- 55.1 2 0 tcp 140 ------- 0 2.3 0.2 158 166
+ 55.1 3 2 ack 40 ------- 0 3.3 2.5 156 167
- 55.1 3 2 ack 40 ------- 0 3.3 2.5 156 167
+ 55.1 3 0 tcp 40 ------- 0 3.6 0.5 156 168
- 55.1 3 0 tcp 40 ------- 0 3.6 0.5 156 168
+ 55.1 2 1 ack 67 ------- 0 2.4 1.6 180 169
- 55.1 2 1 ack 67 ------- 0 2.4 1.6 180 169
+ 55.1 1 2 tcp 67 ------- 0 1.6 2.4 180 170
- 55.1 1 2 tcp 67 ------- 0 1.6 2.4 180 170
r 55.101213 3 1 ack 40 ------- 0 3.2 1.5 156 164
+ 55.101213 1 3 tcp 140 ------- 0 1.5 3.2 133 171
- 55.101213 1 3 tcp 140 ------- 0 1.5 3.2 133 171
r 55.101213 3 2 ack 40 ------- 0 3.3 2.5 156 167
+ 55.101213 2 3 tcp 140 ------- 0 2.5 3.3 133 172
- 55.101213 2 3 tcp 140 ------- 0 2.5 3.3 133 172
r 55.101213 3 0 tcp 40 ------- 0 3.6 0.5 156 168
+ 55.101213 0 3 ack 116 ------- 0 0.5 3.6 133 173
- 55.101213 0 3 ack 116 ------- 0 0.5 3.6 133 173
r 55.101357 0 2 ack 67 ------- 0 0.2 2.3 180 165
r 55.101357 2 1 ack 67 ------- 0 2.4 1.6 180 169
r 55.101357 1 2 tcp 67 ------- 0 1.6 2.4 180 170
r 55.101619 0 1 tcp 116 ------- 0 0.3 1.1 158 163
r 55.101747 1 0 ack 140 ------- 0 1.1 0.3 158 162
r 55.101747 2 0 tcp 140 ------- 0 2.3 0.2 158 166
r 55.102832 0 3 ack 116 ------- 0 0.5 3.6 133 173
r 55.10296 1 3 tcp 140 ------- 0 1.5 3.2 133 171
r 55.10296 2 3 tcp 140 ------- 0 2.5 3.3 133 172
+ 55.2 1 0 ack 67 ------- 0 1.1 0.3 258 174
- 55.2 1 0 ack 67 ------- 0 1.1 0.3 258 174
+ 55.2 0 1 tcp 118 ------- 0 0.3 1.1 234 175
- 55.2 0 1 tcp 118 ------- 0 0.3 1.1 234 175
+ 55.2 3 1 ack 40 ------- 0 3.2 1.5 156 176
- 55.2 3 1 ack 40 ------- 0 3.2 1.5 156 176
+ 55.2 0 2 ack 118 ------- 0 0.2 2.3 207 177
- 55.2 0 2 ack 118 ------- 0 0.2 2.3 207 177
+ 55.2 2 0 tcp 67 ------- 0 2.3 0.2 258 178
- 55.2 2 0 tcp 67 ------- 0 2.3 0.2 258 178
+ 55.2 3 2 ack 40 ------- 0 3.3 2.5 156 179
- 55.2 3 2 ack 40 ------- 0 3.3 2.5 156 179
+ 55.2 3 0 tcp 40 ------- 0 3.6 0.5 156 180
- 55.2 3 0 tcp 40 ------- 0 3.6 0.5 156 180
+ 55.2 2 1 ack 40 ------- 0 2.4 1.6 207 181
- 55.2 2 1 ack 40 ------- 0 2.4 1.6 207 181
+ 55.2 1 2 tcp 118 ------- 0 1.6 2.4 207 182
- 55.2 1 2 tcp 118 ------- 0 1.6 2.4 207 182
r 55.201213 3 1 ack 40 ------- 0 3.2 1.5 156 176
+ 55.201213 1 3 tcp 145 ------- 0 1.5 3.2 233 183
- 55.201213 1 3 tcp 145 ------- 0 1.5 3.2 233 183
r 55.201213 3 2 ack 40 ------- 0 3.3 2.5 156 179
+ 55.201213 2 3 tcp 67 ------- 0 2.5 3.3 233 184
- 55.201213 2 3 tcp 67 ------- 0 2.5 3.3 233 184
r 55.201213 3 0 tcp 40 ------- 0 3.6 0.5 156 180
+ 55.201213 0 3 ack 196 ------- 0 0.5 3.6 209 185
- 55.201213 0 3 ack 196 ------- 0 0.5 3.6 209 185
r 55.201213 2 1 ack 40 ------- 0 2.4 1.6 207 181
r 55.201357 1 0 ack 67 ------- 0 1.1 0.3 258 174
r 55.201357 2 0 tcp 67 ------- 0 2.3 0.2 258 178
r 55.201629 0 1 tcp 118 ------- 0 0.3 1.1 234 175
r 55.201629 0 2 ack 118 ------- 0 0.2 2.3 207 177
r 55.201629 1 2 tcp 118 ------- 0 1.6 2.4 207 182
r 55.202571 2 3 tcp 67 ------- 0 2.5 3.3 233 184
r 55.202987 1 3 tcp 145 ------- 0 1.5 3.2 233 183
r 55.203259 0 3 ack 196 ------- 0 0.5 3.6 209 185
+ 55.3 1 0 ack 40 ------- 0 1.1 0.3 285 186
- 55.3 1 0 ack 40 ------- 0 1.1 0.3 285 186
+ 55.3 0 1 tcp 40 ------- 0 0.3 1.1 312 187
- 55.3 0 1 tcp 40 ------- 0 0.3 1.1 312 187
+ 55.3 3 1 ack 40 ------- 0 3.2 1.5 156 188
- 55.3 3 1 ack 40 ------- 0 3.2 1.5 156 188
+ 55.3 0 2 ack 40 ------- 0 0.2 2.3 285 189
- 55.3 0 2 ack 40 ------- 0 0.2 2.3 285 189
+ 55.3 2 0 tcp 40 ------- 0 2.3 0.2 285 190
- 55.3 2 0 tcp 40 ------- 0 2.3 0.2 285 190
+ 55.3 3 2 ack 40 ------- 0 3.3 2.5 156 191
- 55.3 3 2 ack 40 ------- 0 3.3 2.5 156 191
+ 55.3 3 0 tcp 40 ------- 0 3.6 0.5 156 192
- 55.3 3 0 tcp 40 ------- 0 3.6 0.5 156 192
+ 55.3 2 1 ack 40 ------- 0 2.4 1.6 207 193
- 55.3 2 1 ack 40 ------- 0 2.4 1.6 207 193
r 55.301213 1 0 ack 40 ------- 0 1.1 0.3 285 186
r 55.301213 0 1 tcp 40 ------- 0 0.3 1.1 312 187
r 55.301213 3 1 ack 40 ------- 0 3.2 1.5 156 188
r 55.301213 0 2 ack 40 ------- 0 0.2 2.3 285 189
r 55.301213 2 0 tcp 40 ------- 0 2.3 0.2 285 190
r 55.301213 3 2 ack 40 ------- 0 3.3 2.5 156 191
r 55.301213 3 0 tcp 40 ------- 0 3.6 0.5 156 192
r 55.301213 2 1 ack 40 ------- 0 2.4 1.6 207 193
+ 66.315608 1 0 ack 59 ---A--- 0 1.1 0.3 285 194
- 66.315608 1 0 ack 59 ---A--- 0 1.1 0.3 285 194
r 66.316923 1 0 ack 59 ---A--- 0 1.1 0.3 285 194
+ 66.317062 0 1 tcp 59 ---A--- 0 0.3 1.1 312 195
- 66.317062 0 1 tcp 59 ---A--- 0 0.3 1.1 312 195
r 66.318376 0 1 tcp 59 ---A--- 0 0.3 1.1 312 195
+ 66.4 1 0 ack 40 ------- 0 1.1 0.3 304 196
- 66.4 1 0 ack 40 ------- 0 1.1 0.3 304 196
r 66.401213 1 0 ack 40 ------- 0 1.1 0.3 304 196
+ 67.0634 3 1 ack 59 ---A--- 0 3.2 1.5 156 197
- 67.0634 3 1 ack 59 ---A--- 0 3.2 1.5 156 197
r 67.064715 3 1 ack 59 ---A--- 0 3.2 1.5 156 197
+ 67.064853 1 3 tcp 59 ---A--- 0 1.5 3.2 338 198
- 67.064853 1 3 tcp 59 ---A--- 0 1.5 3.2 338 198
r 67.066168 1 3 tcp 59 ---A--- 0 1.5 3.2 338 198
+ 67.1 3 1 ack 40 ------- 0 3.2 1.5 175 199
- 67.1 3 1 ack 40 ------- 0 3.2 1.5 175 199
r 67.101213 3 1 ack 40 ------- 0 3.2 1.5 175 199
+ 67.186521 0 2 ack 59 ---A--- 0 0.2 2.3 285 200
- 67.186521 0 2 ack 59 ---A--- 0 0.2 2.3 285 200
r 67.187836 0 2 ack 59 ---A--- 0 0.2 2.3 285 200
+ 67.187974 2 0 tcp 59 ---A--- 0 2.3 0.2 285 201
- 67.187974 2 0 tcp 59 ---A--- 0 2.3 0.2 285 201
r 67.189289 2 0 tcp 59 ---A--- 0 2.3 0.2 285 201
+ 67.2 0 2 ack 40 ------- 0 0.2 2.3 304 202
- 67.2 0 2 ack 40 ------- 0 0.2 2.3 304 202
r 67.201213 0 2 ack 40 ------- 0 0.2 2.3 304 202
+ 68.337901 3 2 ack 59 ---A--- 0 3.3 2.5 156 203
- 68.337901 3 2 ack 59 ---A--- 0 3.3 2.5 156 203
r 68.339216 3 2 ack 59 ---A--- 0 3.3 2.5 156 203
+ 68.339355 2 3 tcp 59 ---A--- 0 2.5 3.3 260 204
- 68.339355 2 3 tcp 59 ---A--- 0 2.5 3.3 260 204
r 68.340669 2 3 tcp 59 ---A--- 0 2.5 3.3 260 204
+ 68.4 3 2 ack 40 ------- 0 3.3 2.5 175 205
- 68.4 3 2 ack 40 ------- 0 3.3 2.5 175 205
r 68.401213 3 2 ack 40 ------- 0 3.3 2.5 175 205
+ 68.635191 0 3 ack 59 ---A--- 0 0.5 3.6 365 206
- 68.635191 0 3 ack 59 ---A--- 0 0.5 3.6 365 206
r 68.636506 0 3 ack 59 ---A--- 0 0.5 3.6 365 206
+ 68.636645 3 0 tcp 59 ---A--- 0 3.6 0.5 156 207
- 68.636645 3 0 tcp 59 ---A--- 0 3.6 0.5 156 207
r 68.637959 3 0 tcp 59 ---A--- 0 3.6 0.5 156 207
+ 68.647435 2 1 ack 59 ---A--- 0 2.4 1.6 207 208
- 68.647435 2 1 ack 59 ---A--- 0 2.4 1.6 207 208
r 68.64875 2 1 ack 59 ---A--- 0 2.4 1.6 207 208
+ 68.648888 1 2 tcp 59 ---A--- 0 1.6 2.4 285 209
- 68.648888 1 2 tcp 59 ---A--- 0 1.6 2.4 285 209
r 68.650203 1 2 tcp 59 ---A--- 0 1.6 2.4 285 209
+ 68.7 0 3 ack 40 ------- 0 0.5 3.6 384 210
- 68.7 0 3 ack 40 ------- 0 0.5 3.6 384 210
+ 68.7 2 1 ack 40 ------- 0 2.4 1.6 226 211
- 68.7 2 1 ack 40 ------- 0 2.4 1.6 226 211
r 68.701213 0 3 ack 40 ------- 0 0.5 3.6 384 210
r 68.701213 2 1 ack 40 ------- 0 2.4 1.6 226 211
+ 126.315608 1 0 ack 59 ---A--- 0 1.1 0.3 304 212
- 126.315608 1 0 ack 59 ---A--- 0 1.1 0.3 304 212
r 126.316923 1 0 ack 59 ---A--- 0 1.1 0.3 304 212
+ 126.317062 0 1 tcp 59 ---A--- 0 0.3 1.1 331 213
- 126.317062 0 1 tcp 59 ---A--- 0 0.3 1.1 331 213
r 126.318376 0 1 tcp 59 ---A--- 0 0.3 1.1 331 213
+ 126.4 1 0 ack 40 ------- 0 1.1 0.3 323 214
- 126.4 1 0 ack 40 ------- 0 1.1 0.3 323 214
r 126.401213 1 0 ack 40 ------- 0 1.1 0.3 323 214
+ 127.0634 3 1 ack 59 ---A--- 0 3.2 1.5 175 215
- 127.0634 3 1 ack 59 ---A--- 0 3.2 1.5 175 215
r 127.064715 3 1 ack 59 ---A--- 0 3.2 1.5 175 215
+ 127.064853 1 3 tcp 59 ---A--- 0 1.5 3.2 357 216
- 127.064853 1 3 tcp 59 ---A--- 0 1.5 3.2 357 216
r 127.066168 1 3 tcp 59 ---A--- 0 1.5 3.2 357 216
+ 127.1 3 1 ack 40 ------- 0 3.2 1.5 194 217
- 127.1 3 1 ack 40 ------- 0 3.2 1.5 194 217