+ 5.963956 1 0 tcp 40 ------- 0 1.1 0.0 0 0
- 5.963956 1 0 tcp 40 ------- 0 1.1 0.0 0 0
r 5.965169 1 0 tcp 40 ------- 0 1.1 0.0 0 0
+ 5.965169 0 1 ack 40 ------- 0 0.0 1.1 0 1
- 5.965169 0 1 ack 40 ------- 0 0.0 1.1 0 1
r 5.966382 0 1 ack 40 ------- 0 0.0 1.1 0 1
+ 5.966382 1 0 tcp 40 ------- 0 1.1 0.0 1 2
- 5.966382 1 0 tcp 40 ------- 0 1.1 0.0 1 2
+ 5.966382 1 0 tcp 40 ------- 0 1.1 0.0 1 3
+ 5.966382 1 0 tcp 85 ------- 0 1.1 0.0 1 4
- 5.966596 1 0 tcp 40 ------- 0 1.1 0.0 1 3
- 5.966809 1 0 tcp 85 ------- 0 1.1 0.0 1 4
r 5.967596 1 0 tcp 40 ------- 0 1.1 0.0 1 2
+ 5.967596 0 1 ack 40 ------- 0 0.0 1.1 1 5
- 5.967596 0 1 ack 40 ------- 0 0.0 1.1 1 5
r 5.967809 1 0 tcp 40 ------- 0 1.1 0.0 1 3
r 5.968262 1 0 tcp 85 ------- 0 1.1 0.0 1 4
r 5.968809 0 1 ack 40 ------- 0 0.0 1.1 1 5
+ 5.968809 1 0 tcp 40 ------- 0 1.1 0.0 46 6
- 5.968809 1 0 tcp 40 ------- 0 1.1 0.0 46 6
r 5.970022 1 0 tcp 40 ------- 0 1.1 0.0 46 6
+ 6.166382 1 0 tcp 85 ------- 0 1.1 0.0 1 7
- 6.166382 1 0 tcp 85 ------- 0 1.1 0.0 1 7
r 6.167836 1 0 tcp 85 ------- 0 1.1 0.0 1 7
+ 6.167836 0 1 ack 40 ------- 0 0.0 1.1 2 8
- 6.167836 0 1 ack 40 ------- 0 0.0 1.1 2 8
r 6.169049 0 1 ack 40 ------- 0 0.0 1.1 2 8
+ 6.169049 1 0 tcp 40 ------- 0 1.1 0.0 46 9
- 6.169049 1 0 tcp 40 ------- 0 1.1 0.0 46 9
r 6.170262 1 0 tcp 40 ------- 0 1.1 0.0 46 9
+ 6.170262 0 1 ack 40 ------- 0 0.0 1.1 2 10
- 6.170262 0 1 ack 40 ------- 0 0.0 1.1 2 10
r 6.171476 0 1 ack 40 ------- 0 0.0 1.1 2 10
+ 7.728119 0 1 tcp 40 ------- 0 0.2 1.0 0 11
- 7.728119 0 1 tcp 40 ------- 0 0.2 1.0 0 11
r 7.729332 0 1 tcp 40 ------- 0 0.2 1.0 0 11
+ 7.729332 1 0 ack 40 ------- 0 1.0 0.2 0 12
- 7.729332 1 0 ack 40 ------- 0 1.0 0.2 0 12
r 7.730546 1 0 ack 40 ------- 0 1.0 0.2 0 12
+ 7.730546 0 1 tcp 40 ------- 0 0.2 1.0 1 13
- 7.730546 0 1 tcp 40 ------- 0 0.2 1.0 1 13
+ 7.730546 0 1 tcp 40 ------- 0 0.2 1.0 1 14
+ 7.730546 0 1 tcp 85 ------- 0 0.2 1.0 1 15
- 7.730759 0 1 tcp 40 ------- 0 0.2 1.0 1 14
- 7.730972 0 1 tcp 85 ------- 0 0.2 1.0 1 15
r 7.731759 0 1 tcp 40 ------- 0 0.2 1.0 1 13
r 7.731972 0 1 tcp 40 ------- 0 0.2 1.0 1 14
r 7.732426 0 1 tcp 85 ------- 0 0.2 1.0 1 15
+ 7.732426 1 0 ack 85 ------- 0 1.0 0.2 1 16
- 7.732426 1 0 ack 85 ------- 0 1.0 0.2 1 16
r 7.733879 1 0 ack 85 ------- 0 1.0 0.2 1 16
+ 7.733879 0 1 tcp 59 ------- 0 0.2 1.0 46 17
- 7.733879 0 1 tcp 59 ------- 0 0.2 1.0 46 17
r 7.735194 0 1 tcp 59 ------- 0 0.2 1.0 46 17
+ 7.735194 1 0 ack 59 ------- 0 1.0 0.2 46 18
- 7.735194 1 0 ack 59 ------- 0 1.0 0.2 46 18
r 7.736508 1 0 ack 59 ------- 0 1.0 0.2 46 18
+ 7.736508 0 1 tcp 59 ------- 0 0.2 1.0 65 19
- 7.736508 0 1 tcp 59 ------- 0 0.2 1.0 65 19
r 7.737823 0 1 tcp 59 ------- 0 0.2 1.0 65 19
+ 7.737823 1 0 ack 194 ------- 0 1.0 0.2 65 20
- 7.737823 1 0 ack 194 ------- 0 1.0 0.2 65 20
r 7.739858 1 0 ack 194 ------- 0 1.0 0.2 65 20
+ 7.8 0 1 tcp 40 ------- 0 0.2 1.0 84 21
- 7.8 0 1 tcp 40 ------- 0 0.2 1.0 84 21
r 7.801213 0 1 tcp 40 ------- 0 0.2 1.0 84 21
+ 51 0 1 tcp 40 ------- 0 0.2 1.0 84 22
- 51 0 1 tcp 40 ------- 0 0.2 1.0 84 22
r 51.001213 0 1 tcp 40 ------- 0 0.2 1.0 84 22
+ 51.001213 1 0 ack 40 ------- 0 1.0 0.2 219 23
- 51.001213 1 0 ack 40 ------- 0 1.0 0.2 219 23
+ 51.001213 1 0 ack 40 ------- 0 1.0 0.2 219 24
- 51.001427 1 0 ack 40 ------- 0 1.0 0.2 219 24
r 51.002427 1 0 ack 40 ------- 0 1.0 0.2 219 23
r 51.00264 1 0 ack 40 ------- 0 1.0 0.2 219 24
+ 51.00264 0 1 tcp 40 ------- 0 0.2 1.0 85 25
- 51.00264 0 1 tcp 40 ------- 0 0.2 1.0 85 25
r 51.003853 0 1 tcp 40 ------- 0 0.2 1.0 85 25
+ 57.078884 1 0 tcp 40 ------- 0 1.3 0.1 0 26
- 57.078884 1 0 tcp 40 ------- 0 1.3 0.1 0 26
r 57.080097 1 0 tcp 40 ------- 0 1.3 0.1 0 26
+ 57.080097 0 1 ack 40 ------- 0 0.1 1.3 0 27
- 57.080097 0 1 ack 40 ------- 0 0.1 1.3 0 27
r 57.081311 0 1 ack 40 ------- 0 0.1 1.3 0 27
+ 57.081311 1 0 tcp 40 ------- 0 1.3 0.1 1 28
- 57.081311 1 0 tcp 40 ------- 0 1.3 0.1 1 28
+ 57.081311 1 0 tcp 40 ------- 0 1.3 0.1 1 29
+ 57.081311 1 0 tcp 85 ------- 0 1.3 0.1 1 30
- 57.081524 1 0 tcp 40 ------- 0 1.3 0.1 1 29
- 57.081737 1 0 tcp 85 ------- 0 1.3 0.1 1 30
r 57.082524 1 0 tcp 40 ------- 0 1.3 0.1 1 28
+ 57.082524 0 1 ack 40 ------- 0 0.1 1.3 1 31
- 57.082524 0 1 ack 40 ------- 0 0.1 1.3 1 31
r 57.082737 1 0 tcp 40 ------- 0 1.3 0.1 1 29
r 57.083191 1 0 tcp 85 ------- 0 1.3 0.1 1 30
r 57.083737 0 1 ack 40 ------- 0 0.1 1.3 1 31
+ 57.083737 1 0 tcp 40 ------- 0 1.3 0.1 46 32
- 57.083737 1 0 tcp 40 ------- 0 1.3 0.1 46 32
r 57.084951 1 0 tcp 40 ------- 0 1.3 0.1 46 32
+ 57.281311 1 0 tcp 85 ------- 0 1.3 0.1 1 33
- 57.281311 1 0 tcp 85 ------- 0 1.3 0.1 1 33
r 57.282764 1 0 tcp 85 ------- 0 1.3 0.1 1 33
+ 57.282764 0 1 ack 40 ------- 0 0.1 1.3 2 34
- 57.282764 0 1 ack 40 ------- 0 0.1 1.3 2 34
r 57.283977 0 1 ack 40 ------- 0 0.1 1.3 2 34
+ 57.283977 1 0 tcp 40 ------- 0 1.3 0.1 46 35
- 57.283977 1 0 tcp 40 ------- 0 1.3 0.1 46 35
r 57.285191 1 0 tcp 40 ------- 0 1.3 0.1 46 35
+ 57.285191 0 1 ack 40 ------- 0 0.1 1.3 2 36
- 57.285191 0 1 ack 40 ------- 0 0.1 1.3 2 36
r 57.286404 0 1 ack 40 ------- 0 0.1 1.3 2 36
+ 58.88369 0 1 tcp 40 ------- 0 0.4 1.2 0 37
- 58.88369 0 1 tcp 40 ------- 0 0.4 1.2 0 37
r 58.884903 0 1 tcp 40 ------- 0 0.4 1.2 0 37
+ 58.884903 1 0 ack 40 ------- 0 1.2 0.4 0 38
- 58.884903 1 0 ack 40 ------- 0 1.2 0.4 0 38
r 58.886116 1 0 ack 40 ------- 0 1.2 0.4 0 38
+ 58.886116 0 1 tcp 40 ------- 0 0.4 1.2 1 39
- 58.886116 0 1 tcp 40 ------- 0 0.4 1.2 1 39
+ 58.886116 0 1 tcp 40 ------- 0 0.4 1.2 1 40
+ 58.886116 0 1 tcp 85 ------- 0 0.4 1.2 1 41
- 58.88633 0 1 tcp 40 ------- 0 0.4 1.2 1 40
- 58.886543 0 1 tcp 85 ------- 0 0.4 1.2 1 41
r 58.88733 0 1 tcp 40 ------- 0 0.4 1.2 1 39
r 58.887543 0 1 tcp 40 ------- 0 0.4 1.2 1 40
r 58.887996 0 1 tcp 85 ------- 0 0.4 1.2 1 41
+ 58.887996 1 0 ack 85 ------- 0 1.2 0.4 1 42
- 58.887996 1 0 ack 85 ------- 0 1.2 0.4 1 42
r 58.88945 1 0 ack 85 ------- 0 1.2 0.4 1 42
+ 58.88945 0 1 tcp 59 ------- 0 0.4 1.2 46 43
- 58.88945 0 1 tcp 59 ------- 0 0.4 1.2 46 43
r 58.890764 0 1 tcp 59 ------- 0 0.4 1.2 46 43
+ 58.890764 1 0 ack 59 ------- 0 1.2 0.4 46 44
- 58.890764 1 0 ack 59 ------- 0 1.2 0.4 46 44
r 58.892079 1 0 ack 59 ------- 0 1.2 0.4 46 44
+ 58.892079 0 1 tcp 59 ------- 0 0.4 1.2 65 45
- 58.892079 0 1 tcp 59 ------- 0 0.4 1.2 65 45
r 58.893394 0 1 tcp 59 ------- 0 0.4 1.2 65 45
+ 58.893394 1 0 ack 194 ------- 0 1.2 0.4 65 46
- 58.893394 1 0 ack 194 ------- 0 1.2 0.4 65 46
r 58.895428 1 0 ack 194 ------- 0 1.2 0.4 65 46
+ 58.9 0 1 tcp 40 ------- 0 0.4 1.2 84 47
- 58.9 0 1 tcp 40 ------- 0 0.4 1.2 84 47
r 58.901213 0 1 tcp 40 ------- 0 0.4 1.2 84 47
