+ 5.184542 1 2 tcp 40 ------- 0 1.1 2.0 0 0
- 5.184542 1 2 tcp 40 ------- 0 1.1 2.0 0 0
r 5.185756 1 2 tcp 40 ------- 0 1.1 2.0 0 0
+ 5.185756 2 1 ack 40 ------- 0 2.0 1.1 0 1
- 5.185756 2 1 ack 40 ------- 0 2.0 1.1 0 1
r 5.186969 2 1 ack 40 ------- 0 2.0 1.1 0 1
+ 5.186969 1 2 tcp 40 ------- 0 1.1 2.0 1 2
- 5.186969 1 2 tcp 40 ------- 0 1.1 2.0 1 2
+ 5.186969 1 2 tcp 40 ------- 0 1.1 2.0 1 3
+ 5.186969 1 2 tcp 85 ------- 0 1.1 2.0 1 4
- 5.187182 1 2 tcp 40 ------- 0 1.1 2.0 1 3
- 5.187396 1 2 tcp 85 ------- 0 1.1 2.0 1 4
r 5.188182 1 2 tcp 40 ------- 0 1.1 2.0 1 2
+ 5.188182 2 1 ack 40 ------- 0 2.0 1.1 1 5
- 5.188182 2 1 ack 40 ------- 0 2.0 1.1 1 5
r 5.188396 1 2 tcp 40 ------- 0 1.1 2.0 1 3
r 5.188849 1 2 tcp 85 ------- 0 1.1 2.0 1 4
r 5.189396 2 1 ack 40 ------- 0 2.0 1.1 1 5
+ 5.189396 1 2 tcp 40 ------- 0 1.1 2.0 46 6
- 5.189396 1 2 tcp 40 ------- 0 1.1 2.0 46 6
r 5.190609 1 2 tcp 40 ------- 0 1.1 2.0 46 6
+ 5.285739 0 5 tcp 40 ------- 0 0.1 5.0 0 7
- 5.285739 0 5 tcp 40 ------- 0 0.1 5.0 0 7
r 5.286952 0 5 tcp 40 ------- 0 0.1 5.0 0 7
+ 5.286952 5 0 ack 40 ------- 0 5.0 0.1 0 8
- 5.286952 5 0 ack 40 ------- 0 5.0 0.1 0 8
r 5.288166 5 0 ack 40 ------- 0 5.0 0.1 0 8
+ 5.288166 0 5 tcp 40 ------- 0 0.1 5.0 1 9
- 5.288166 0 5 tcp 40 ------- 0 0.1 5.0 1 9
+ 5.288166 0 5 tcp 40 ------- 0 0.1 5.0 1 10
+ 5.288166 0 5 tcp 85 ------- 0 0.1 5.0 1 11
- 5.288379 0 5 tcp 40 ------- 0 0.1 5.0 1 10
- 5.288592 0 5 tcp 85 ------- 0 0.1 5.0 1 11
r 5.289379 0 5 tcp 40 ------- 0 0.1 5.0 1 9
+ 5.289379 5 0 ack 40 ------- 0 5.0 0.1 1 12
- 5.289379 5 0 ack 40 ------- 0 5.0 0.1 1 12
r 5.289592 0 5 tcp 40 ------- 0 0.1 5.0 1 10
r 5.290046 0 5 tcp 85 ------- 0 0.1 5.0 1 11
r 5.290592 5 0 ack 40 ------- 0 5.0 0.1 1 12
+ 5.290592 0 5 tcp 40 ------- 0 0.1 5.0 46 13
- 5.290592 0 5 tcp 40 ------- 0 0.1 5.0 46 13
r 5.291806 0 5 tcp 40 ------- 0 0.1 5.0 46 13
+ 5.362694 0 1 tcp 40 ------- 0 0.2 1.0 0 14
- 5.362694 0 1 tcp 40 ------- 0 0.2 1.0 0 14
r 5.363907 0 1 tcp 40 ------- 0 0.2 1.0 0 14
+ 5.363907 1 0 ack 40 ------- 0 1.0 0.2 0 15
- 5.363907 1 0 ack 40 ------- 0 1.0 0.2 0 15
r 5.36512 1 0 ack 40 ------- 0 1.0 0.2 0 15
+ 5.36512 0 1 tcp 40 ------- 0 0.2 1.0 1 16
- 5.36512 0 1 tcp 40 ------- 0 0.2 1.0 1 16
+ 5.36512 0 1 tcp 40 ------- 0 0.2 1.0 1 17
+ 5.36512 0 1 tcp 85 ------- 0 0.2 1.0 1 18
- 5.365334 0 1 tcp 40 ------- 0 0.2 1.0 1 17
- 5.365547 0 1 tcp 85 ------- 0 0.2 1.0 1 18
r 5.366334 0 1 tcp 40 ------- 0 0.2 1.0 1 16
+ 5.366334 1 0 ack 40 ------- 0 1.0 0.2 1 19
- 5.366334 1 0 ack 40 ------- 0 1.0 0.2 1 19
r 5.366547 0 1 tcp 40 ------- 0 0.2 1.0 1 17
r 5.367 0 1 tcp 85 ------- 0 0.2 1.0 1 18
r 5.367547 1 0 ack 40 ------- 0 1.0 0.2 1 19
+ 5.367547 0 1 tcp 40 ------- 0 0.2 1.0 46 20
- 5.367547 0 1 tcp 40 ------- 0 0.2 1.0 46 20
r 5.36876 0 1 tcp 40 ------- 0 0.2 1.0 46 20
+ 5.386969 1 2 tcp 85 ------- 0 1.1 2.0 1 21
- 5.386969 1 2 tcp 85 ------- 0 1.1 2.0 1 21
r 5.388422 1 2 tcp 85 ------- 0 1.1 2.0 1 21
+ 5.388422 2 1 ack 40 ------- 0 2.0 1.1 2 22
- 5.388422 2 1 ack 40 ------- 0 2.0 1.1 2 22
r 5.389636 2 1 ack 40 ------- 0 2.0 1.1 2 22
+ 5.389636 1 2 tcp 40 ------- 0 1.1 2.0 46 23
- 5.389636 1 2 tcp 40 ------- 0 1.1 2.0 46 23
r 5.390849 1 2 tcp 40 ------- 0 1.1 2.0 46 23
+ 5.390849 2 1 ack 40 ------- 0 2.0 1.1 2 24
- 5.390849 2 1 ack 40 ------- 0 2.0 1.1 2 24
r 5.392062 2 1 ack 40 ------- 0 2.0 1.1 2 24
+ 5.488166 0 5 tcp 85 ------- 0 0.1 5.0 1 25
- 5.488166 0 5 tcp 85 ------- 0 0.1 5.0 1 25
r 5.489619 0 5 tcp 85 ------- 0 0.1 5.0 1 25
+ 5.489619 5 0 ack 40 ------- 0 5.0 0.1 2 26
- 5.489619 5 0 ack 40 ------- 0 5.0 0.1 2 26
r 5.490832 5 0 ack 40 ------- 0 5.0 0.1 2 26
+ 5.490832 0 5 tcp 40 ------- 0 0.1 5.0 46 27
- 5.490832 0 5 tcp 40 ------- 0 0.1 5.0 46 27
r 5.492046 0 5 tcp 40 ------- 0 0.1 5.0 46 27
+ 5.492046 5 0 ack 40 ------- 0 5.0 0.1 2 28
- 5.492046 5 0 ack 40 ------- 0 5.0 0.1 2 28
r 5.493259 5 0 ack 40 ------- 0 5.0 0.1 2 28
+ 5.56512 0 1 tcp 85 ------- 0 0.2 1.0 1 29
- 5.56512 0 1 tcp 85 ------- 0 0.2 1.0 1 29
r 5.566574 0 1 tcp 85 ------- 0 0.2 1.0 1 29
+ 5.566574 1 0 ack 40 ------- 0 1.0 0.2 2 30
- 5.566574 1 0 ack 40 -----