+ 5.160304 2 1 tcp 40 ------- 0 2.1 1.0 0 0
- 5.160304 2 1 tcp 40 ------- 0 2.1 1.0 0 0
r 5.161517 2 1 tcp 40 ------- 0 2.1 1.0 0 0
+ 5.161517 1 2 ack 40 ------- 0 1.0 2.1 0 1
- 5.161517 1 2 ack 40 ------- 0 1.0 2.1 0 1
r 5.162731 1 2 ack 40 ------- 0 1.0 2.1 0 1
+ 5.162731 2 1 tcp 40 ------- 0 2.1 1.0 1 2
- 5.162731 2 1 tcp 40 ------- 0 2.1 1.0 1 2
+ 5.162731 2 1 tcp 40 ------- 0 2.1 1.0 1 3
+ 5.162731 2 1 tcp 85 ------- 0 2.1 1.0 1 4
- 5.162944 2 1 tcp 40 ------- 0 2.1 1.0 1 3
- 5.163157 2 1 tcp 85 ------- 0 2.1 1.0 1 4
r 5.163944 2 1 tcp 40 ------- 0 2.1 1.0 1 2
+ 5.163944 1 2 ack 40 ------- 0 1.0 2.1 1 5
- 5.163944 1 2 ack 40 ------- 0 1.0 2.1 1 5
r 5.164157 2 1 tcp 40 ------- 0 2.1 1.0 1 3
r 5.164611 2 1 tcp 85 ------- 0 2.1 1.0 1 4
r 5.165157 1 2 ack 40 ------- 0 1.0 2.1 1 5
+ 5.165157 2 1 tcp 40 ------- 0 2.1 1.0 46 6
- 5.165157 2 1 tcp 40 ------- 0 2.1 1.0 46 6
r 5.166371 2 1 tcp 40 ------- 0 2.1 1.0 46 6
+ 5.362731 2 1 tcp 85 ------- 0 2.1 1.0 1 7
- 5.362731 2 1 tcp 85 ------- 0 2.1 1.0 1 7
r 5.364184 2 1 tcp 85 ------- 0 2.1 1.0 1 7
+ 5.364184 1 2 ack 40 ------- 0 1.0 2.1 2 8
- 5.364184 1 2 ack 40 ------- 0 1.0 2.1 2 8
r 5.365397 1 2 ack 40 ------- 0 1.0 2.1 2 8
+ 5.365397 2 1 tcp 40 ------- 0 2.1 1.0 46 9
- 5.365397 2 1 tcp 40 ------- 0 2.1 1.0 46 9
r 5.366611 2 1 tcp 40 ------- 0 2.1 1.0 46 9
+ 5.366611 1 2 ack 40 ------- 0 1.0 2.1 2 10
- 5.366611 1 2 ack 40 ------- 0 1.0 2.1 2 10
r 5.367824 1 2 ack 40 ------- 0 1.0 2.1 2 10
+ 5.392157 1 0 tcp 40 ------- 0 1.2 0.0 0 11
- 5.392157 1 0 tcp 40 ------- 0 1.2 0.0 0 11
r 5.39337 1 0 tcp 40 ------- 0 1.2 0.0 0 11
+ 5.39337 0 1 ack 40 ------- 0 0.0 1.2 0 12
- 5.39337 0 1 ack 40 ------- 0 0.0 1.2 0 12
r 5.394584 0 1 ack 40 ------- 0 0.0 1.2 0 12
+ 5.394584 1 0 tcp 40 ------- 0 1.2 0.0 1 13
- 5.394584 1 0 tcp 40 ------- 0 1.2 0.0 1 13
+ 5.394584 1 0 tcp 40 ------- 0 1.2 0.0 1 14
+ 5.394584 1 0 tcp 85 ------- 0 1.2 0.0 1 15
- 5.394797 1 0 tcp 40 ------- 0 1.2 0.0 1 14
- 5.39501 1 0 tcp 85 ------- 0 1.2 0.0 1 15
r 5.395797 1 0 tcp 40 ------- 0 1.2 0.0 1 13
+ 5.395797 0 1 ack 40 ------- 0 0.0 1.2 1 16
- 5.395797 0 1 ack 40 ------- 0 0.0 1.2 1 16
r 5.39601 1 0 tcp 40 ------- 0 1.2 0.0 1 14
r 5.396464 1 0 tcp 85 ------- 0 1.2 0.0 1 15
r 5.39701 0 1 ack 40 ------- 0 0.0 1.2 1 16
+ 5.39701 1 0 tcp 40 ------- 0 1.2 0.0 46 17
- 5.39701 1 0 tcp 40 ------- 0 1.2 0.0 46 17
r 5.398224 1 0 tcp 40 ------- 0 1.2 0.0 46 17
+ 5.594584 1 0 tcp 85 ------- 0 1.2 0.0 1 18
- 5.594584 1 0 tcp 85 ------- 0 1.2 0.0 1 18
r 5.596037 1 0 tcp 85 ------- 0 1.2 0.0 1 18
+ 5.596037 0 1 ack 40 ------- 0 0.0 1.2 2 19
- 5.596037 0 1 ack 40 ------- 0 0.0 1.2 2 19
r 5.59725 0 1 ack 40 ------- 0 0.0 1.2 2 19
+ 5.59725 1 0 tcp 40 ------- 0 1.2 0.0 46 20
- 5.59725 1 0 tcp 40 ------- 0 1.2 0.0 46 20
r 5.598464 1 0 tcp 40 ------- 0 1.2 0.0 46 20
+ 5.598464 0 1 ack 40 ------- 0 0.0 1.2 2 21
- 5.598464 0 1 ack 40 ------- 0 0.0 1.2 2 21
r 5.599677 0 1 ack 40 ------- 0 0.0 1.2 2 21
+ 5.635283 0 1 tcp 40 ------- 0 0.2 1.1 0 22
- 5.635283 0 1 tcp 40 ------- 0 0.2 1.1 0 22
r 5.636497 0 1 tcp 40 ------- 0 0.2 1.1 0 22
+ 5.636497 1 0 ack 40 ------- 0 1.1 0.2 0 23
- 5.636497 1 0 ack 40 ------- 0 1.1 0.2 0 23
r 5.63771 1 0 ack 40 ------- 0 1.1 0.2 0 23
+ 5.63771 0 1 tcp 40 ------- 0 0.2 1.1 1 24
- 5.63771 0 1 tcp 40 ------- 0 0.2 1.1 1 24
+ 5.63771 0 1 tcp 40 ------- 0 0.2 1.1 1 25
+ 5.63771 0 1 tcp 85 ------- 0 0.2 1.1 1 26
- 5.637923 0 1 tcp 40 ------- 0 0.2 1.1 1 25
- 5.638137 0 1 tcp 85 ------- 0 0.2 1.1 1 26
r 5.638923 0 1 tcp 40 ------- 0 0.2 1.1 1 24
r 5.639137 0 1 tcp 40 ------- 0 0.2 1.1 1 25
r 5.63959 0 1 tcp 85 ------- 0 0.2 1.1 1 26
+ 5.63959 1 0 ack 85 ------- 0 1.1 0.2 1 27
- 5.63959 1 0 ack 85 ------- 0 1.1 0.2 1 27
r 5.641043 1 0 ack 85 ------- 0 1.1 0.2 1 27
+ 5.641043 0 1 tcp 59 ------- 0 0.2 1.1 46 28
- 5.641043 0 1 tcp 59 ------- 0 0.2 1.1 46 28
r 5.642358 0 1 tcp 59 ------- 0 0.2 1.1 46 28
+ 5.642358 1 0 ack 59 ------- 0 1.1 0.2 46 29
- 5.642358 1 0 ack 59 ------- 0 1.1 0.2 46 29
r 5.643673 1 0 ack 59 ------- 0 1.1 0.2 46 29
+ 5.643673 0 1 tcp 59 ------- 0 0.2 1.1 65 30
- 5.643673 0 1 tcp 59 ------- 0 0.2 1.1 65 30
r 5.644987 0 1 tcp 59 ------- 0 0.2 1.1 65 30
+ 5.644987 1 0 ack 59 ------- 0 1.1 0.2 65 31
- 5.644987 1 0 ack 59 ------- 0 1.1 0.2 65 31
r 5.646302 1 0 ack 59 ------- 0 1.1 0.2 65 31
+ 5.646302 0 1 tcp 84 ------- 0 0.2 1.1 84 32
- 5.646302 0 1 tcp 84 ------- 0 0.2 1.1 84 32
r 5.64775 0 1 tcp 84 ------- 0 0.2 1.1 84 32
+ 5.7 1 0 ack 40 ------- 0 1.1 0.2 84 33
- 5.7 1 0 ack 40 ------- 0 1.1 0.2 84 33
r 5.701213 1 0 ack 40 ------- 0 1.1 0.2 84 33
+ 6.765439 3 1 tcp 40 ------- 0 3.1 1.3 0 34
- 6.765439 3 1 tcp 40 ------- 0 3.1 1.3 0 34
r 6.766652 3 1 tcp 40 ------- 0 3.1 1.3 0 34
+ 6.766652 1 3 ack 40 ------- 0 1.3 3.1 0 35
- 6.766652 1 3 ack 40 ------- 0 1.3 3.1 0 35
r 6.767866 1 3 ack 40 ------- 0 1.3 3.1 0 35
+ 6.767866 3 1 tcp 40 ------- 0 3.1 1.3 1 36
- 6.767866 3 1 tcp 40 ------- 0 3.1 1.3 1 36
+ 6.767866 3 1 tcp 40 ------- 0 3.1 1.3 1 37
+ 6.767866 3 1 tcp 85 ------- 0 3.1 1.3 1 38
- 6.768079 3 1 tcp 40 ------- 0 3.1 1.3 1 37
- 6.768292 3 1 tcp 85 ------- 0 3.1 1.3 1 38
r 6.769079 3 1 tcp 40 ------- 0 3.1 1.3 1 36
+ 6.769079 1 3 ack 40 ------- 0 1.3 3.1 1 39
- 6.769079 1 3 ack 40 ------- 0 1.3 3.1 1 39
r 6.769292 3 1 tcp 40 ------- 0 3.1 1.3 1 37
r 6.769746 3 1 tcp 85 ------- 0 3.1 1.3 1 38
r 6.770292 1 3 ack 40 ------- 0 1.3 3.1 1 39
+ 6.770292 3 1 tcp 40 ------- 0 3.1 1.3 46 40
- 6.770292 3 1 tcp 40 ------- 0 3.1 1.3 46 40
r 6.771506 3 1 tcp 40 ------- 0 3.1 1.3 46 40
+ 6.967866 3 1 tcp 85 ------- 0 3.1 1.3 1 41
- 6.967866 3 1 tcp 85 ------- 0 3.1 1.3 1 41
r 6.969319 3 1 tcp 85 ------- 0 3.1 1.3 1 41
+ 6.969319 1 3 ack 40 ------- 0 1.3 3.1 2 42
- 6.969319 1 3 ack 40 ------- 0 1.3 3.1 2 42
r 6.970532 1 3 ack 40 ------- 0 1.3 3.1 2 42
+ 6.970532 3 1 tcp 40 ------- 0 3.1 1.3 46 43
- 6.970532 3 1 tcp 40 ------- 0 3.1 1.3 46 43
r 6.971746 3 1 tcp 40 ------- 0 3.1 1.3 46 43
+ 6.971746 1 3 ack 40 ------- 0 1.3 3.1 2 44
- 6.971746 1 3 ack 40 ------- 0 1.3 3.1 2 44
r 6.972959 1 3 ack 40 ------- 0 1.3 3.1 2 44
+ 8.173672 1 3 tcp 40 ------- 0 1.5 3.0 0 45
- 8.173672 1 3 tcp 40 ------- 0 1.5 3.0 0 45
r 8.174886 1 3 tcp 40 ------- 0 1.5 3.0 0 45
+ 8.174886 3 1 ack 40 ------- 0 3.0 1.5 0 46
- 8.174886 3 1 ack 40 ------- 0 3.0 1.5 0 46
r 8.176099 3 1 ack 40 ------- 0 3.0 1.5 0 46
+ 8.176099 1 3 tcp 40 ------- 0 1.5 3.0 1 47
- 8.176099 1 3 tcp 40 ------- 0 1.5 3.0 1 47
+ 8.176099 1 3 tcp 40 ------- 0 1.5 3.0 1 48
+ 8.176099 1 3 tcp 85 ------- 0 1.5 3.0 1 49
- 8.176312 1 3 tcp 40 ------- 0 1.5 3.0 1 48
- 8.176526 1 3 tcp 85 ------- 0 1.5 3.0 1 49
r 8.177312 1 3 tcp 40 ------- 0 1.5 3.0 1 47
r 8.177526 1 3 tcp 40 ------- 0 1.5 3.0 1 48
r 8.177979 1 3 tcp 85 ------- 0 1.5 3.0 1 49
+ 8.177979 3 1 ack 85 ------- 0 3.0 1.5 1 50
- 8.177979 3 1 ack 85 ------- 0 3.0 1.5 1 50
r 8.179432 3 1 ack 85 ------- 0 3.0 1.5 1 50
+ 8.179432 1 3 tcp 59 ------- 0 1.5 3.0 46 51
- 8.179432 1 3 tcp 59 ------- 0 1.5 3.0 46 51
r 8.180747 1 3 tcp 59 ------- 0 1.5 3.0 46 51
+ 8.180747 3 1 ack 59 ------- 0 3.0 1.5 46 52
- 8.180747 3 1 ack 59 ------- 0 3.0 1.5 46 52
r 8.182062 3 1 ack 59 ------- 0 3.0 1.5 46 52
+ 8.182062 1 3 tcp 59 ------- 0 1.5 3.0 65 53
- 8.182062 1 3 tcp 59 ------- 0 1.5 3.0 65 53
r 8.183376 1 3 tcp 59 ------- 0 1.5 3.0 65 53
+ 8.183376 3 1 ack 59 ------- 0 3.0 1.5 65 54
- 8.183376 3 1 ack 59 ------- 0 3.0 1.5 65 54
r 8.184691 3 1 ack 59 ------- 0 3.0 1.5 65 54
+ 8.184691 1 3 tcp 140 ------- 0 1.5 3.0 84 55
- 8.184691 1 3 tcp 140 ------- 0 1.5 3.0 84 55
r 8.186438 1 3 tcp 140 ------- 0 1.5 3.0 84 55
+ 8.2 3 1 ack 40 ------- 0 3.0 1.5 84 56
- 8.2 3 1 ack 40 ------- 0 3.0 1.5 84 56
r 8.201213 3 1 ack 40 ------- 0 3.0 1.5 84 56
+ 8.441582 1 2 tcp 40 ------- 0 1.6 2.0 0 57
- 8.441582 1 2 tcp 40 ------- 0 1.6 2.0 0 57
r 8.442795 1 2 tcp 40 ------- 0 1.6 2.0 0 57
+ 8.442795 2 1 ack 40 ------- 0 2.0 1.6 0 58
- 8.442795 2 1 ack 40 ------- 0 2.0 1.6 0 58
r 8.444008 2 1 ack 40 ------- 0 2.0 1.6 0 58
+ 8.444008 1 2 tcp 40 ------- 0 1.6 2.0 1 59
- 8.444008 1 2 tcp 40 ------- 0 1.6 2.0 1 59
+ 8.444008 1 2 tcp 40 ------- 0 1.6 2.0 1 60
+ 8.444008 1 2 tcp 85 ------- 0 1.6 2.0 1 61
- 8.444222 1 2 tcp 40 ------- 0 1.6 2.0 1 60
- 8.444435 1 2 tcp 85 ------- 0 1.6 2.0 1 61
r 8.445222 1 2 tcp 40 ------- 0 1.6 2.0 1 59
r 8.445435 1 2 tcp 40 ------- 0 1.6 2.0 1 60
r 8.445888 1 2 tcp 85 ------- 0 1.6 2.0 1 61
+ 8.445888 2 1 ack 85 ------- 0 2.0 1.6 1 62
- 8.445888 2 1 ack 85 ------- 0 2.0 1.6 1 62
r 8.447342 2 1 ack 85 ------- 0 2.0 1.6 1 62
+ 8.447342 1 2 tcp 59 ------- 0 1.6 2.0 46 63
- 8.447342 1 2 tcp 59 ------- 0 1.6 2.0 46 63
r 8.448656 1 2 tcp 59 ------- 0 1.6 2.0 46 63
+ 8.448656 2 1 ack 59 ------- 0 2.0 1.6 46 64
- 8.448656 2 1 ack 59 ------- 0 2.0 1.6 46 64
r 8.449971 2 1 ack 59 ------- 0 2.0 1.6 46 64
+ 8.449971 1 2 tcp 59 ------- 0 1.6 2.0 65 65
- 8.449971 1 2 tcp 59 ------- 0 1.6 2.0 65 65
r 8.451286 1 2 tcp 59 ------- 0 1.6 2.0 65 65
+ 8.451286 2 1 ack 103 ------- 0 2.0 1.6 65 66
- 8.451286 2 1 ack 103 ------- 0 2.0 1.6 65 66
r 8.452835 2 1 ack 103 ------- 0 2.0 1.6 65 66
+ 8.452835 1 2 tcp 140 ------- 0 1.6 2.0 84 67
- 8.452835 1 2 tcp 140 ------- 0 1.6 2.0 84 67
+ 8.452835 1 3 tcp 65 ---A--- 0 1.5 3.0 184 68
- 8.452835 1 3 tcp 65 ---A--- 0 1.5 3.0 184 68
+ 8.452835 1 0 ack 86 ---A--- 0 1.1 0.2 84 69
- 8.452835 1 0 ack 86 ---A--- 0 1.1 0.2 84 69
r 8.454182 1 3 tcp 65 ---A--- 0 1.5 3.0 184 68
r 8.454294 1 0 ack 86 ---A--- 0 1.1 0.2 84 69
r 8.454582 1 2 tcp 140 ------- 0 1.6 2.0 84 67
+ 8.5 0 1 tcp 40 ------- 0 0.2 1.1 128 70
- 8.5 0 1 tcp 40 ------- 0 0.2 1.1 128 70
+ 8.5 3 1 ack 40 ------- 0 3.0 1.5 84 71
- 8.5 3 1 ack 40 ------- 0 3.0 1.5 84 71
+ 8.5 2 1 ack 40 ------- 0 2.0 1.6 128 72
- 8.5 2 1 ack 40 ------- 0 2.0 1.6 128 72
r 8.501213 0 1 tcp 40 ------- 0 0.2 1.1 128 70
r 8.501213 3 1 ack 40 ------- 0 3.0 1.5 84 71
+ 8.501213 1 3 tcp 86 ------- 0 1.5 3.0 209 73
- 8.501213 1 3 tcp 86 ------- 0 1.5 3.0 209 73
r 8.501213 2 1 ack 40 ------- 0 2.0 1.6 128 72
+ 8.501213 1 2 tcp 65 ------- 0 1.6 2.0 184 74
- 8.501213 1 2 tcp 65 ------- 0 1.6 2.0 184 74
r 8.50256 1 2 tcp 65 ------- 0 1.6 2.0 184 74
r 8.502672 1 3 tcp 86 ------- 0 1.5 3.0 209 73
+ 8.6 3 1 ack 40 ------- 0 3.0 1.5 84 75
- 8.6 3 1 ack 40 ------- 0 3.0 1.5 84 75
+ 8.6 2 1 ack 40 ------- 0 2.0 1.6 128 76
- 8.6 2 1 ack 40 ------- 0 2.0 1.6 128 76
r 8.601213 3 1 ack 40 ------- 0 3.0 1.5 84 75
r 8.601213 2 1 ack 40 ------- 0 2.0 1.6 128 76
+ 38.182062 1 3 tcp 98 ---A--- 0 1.5 3.0 255 77
- 38.182062 1 3 tcp 98 ---A--- 0 1.5 3.0 255 77
r 38.183584 1 3 tcp 98 ---A--- 0 1.5 3.0 255 77
+ 38.2 3 1 ack 40 ------- 0 3.0 1.5 84 78
- 38.2 3 1 ack 40 ------- 0 3.0 1.5 84 78
r 38.201213 3 1 ack 40 ------- 0 3.0 1.5 84 78
+ 65.63959 1 0 ack 59 ---A--- 0 1.1 0.2 130 79
- 65.63959 1 0 ack 59 ---A--- 0 1.1 0.2 130 79
r 65.640905 1 0 ack 59 ---A--- 0 1.1 0.2 130 79
+ 65.641043 0 1 tcp 59 ---A--- 0 0.2 1.1 128 80
- 65.641043 0 1 tcp 59 ---A--- 0 0.2 1.1 128 80
r 65.642358 0 1 tcp 59 ---A--- 0 0.2 1.1 128 80
+ 65.7 1 0 ack 40 ------- 0 1.1 0.2 149 81
- 65.7 1 0 ack 40 ------- 0 1.1 0.2 149 81
r 65.701213 1 0 ack 40 ------- 0 1.1 0.2 149 81
+ 68.177979 3 1 ack 59 ---A--- 0 3.0 1.5 84 82
- 68.177979 3 1 ack 59 ---A--- 0 3.0 1.5 84 82
r 68.179294 3 1 ack 59 ---A--- 0 3.0 1.5 84 82
+ 68.179432 1 3 tcp 59 ---A--- 0 1.5 3.0 313 83
- 68.179432 1 3 tcp 59 ---A--- 0 1.5 3.0 313 83
r 68.180747 1 3 tcp 59 ---A--- 0 1.5 3.0 313 83
+ 68.2 3 1 ack 40 ------- 0 3.0 1.5 103 84
- 68.2 3 1 ack 40 ------- 0 3.0 1.5 103 84
r 68.201213 3 1 ack 40 ------- 0 3.0 1.5 103 84
+ 68.445888 2 1 ack 59 ---A--- 0 2.0 1.6 128 85
- 68.445888 2 1 ack 59 ---A--- 0 2.0 1.6 128 85
r 68.447203 2 1 ack 59 ---A--- 0 2.0 1.6 128 85
+ 68.447342 1 2 tcp 59 ---A--- 0 1.6 2.0 209 86
- 68.447342 1 2 tcp 59 ---A--- 0 1.6 2.0 209 86
r 68.448656 1 2 tcp 59 ---A--- 0 1.6 2.0 209 86
+ 68.5 2 1 ack 40 ------- 0 2.0 1.6 147 87
- 68.5 2 1 ack 40 ------- 0 2.0 1.6 147 87
r 68.501213 2 1 ack 40 ------- 0 2.0 1.6 147 87
+ 125.63959 1 0 ack 59 ---A--- 0 1.1 0.2 149 88
- 125.63959 1 0 ack 59 ---A--- 0 1.1 0.2 149 88
r 125.640905 1 0 ack 59 ---A--- 0 1.1 0.2 149 88
+ 125.641043 0 1 tcp 59 ---A--- 0 0.2 1.1 147 89
- 125.641043 0 1 tcp 59 ---A--- 0 0.2 1.1 147 89
r 125.642358 0 1 tcp 59 ---A--- 0 0.2 1.1 147 89
+ 125.7 1 0 ack 40 ------- 0 1.1 0.2 168 90
- 125.7 1 0 ack 40 ------- 0 1.1 0.2 168 90
r 125.701213 1 0 ack 40 ------- 0 1.1 0.2 168 90
+ 128.177979 3 1 ack 59 ---A--- 0 3.0 1.5 103 91
- 128.177979 3 1 ack 59 ---A--- 0 3.0 1.5 103 91
r 128.179294 3 1 ack 59 ---A--- 0 3.0 1.5 103 91
+ 128.179432 1 3 tcp 59 ---A--- 0 1.5 3.0 332 92
- 128.179432 1 3 tcp 59 ---A--- 0 1.5 3.0 332 92
r 128.180747 1 3 tcp 59 ---A--- 0 1.5 3.0 332 92
+ 128.2 3 1 ack 40 ------- 0 3.0 1.5 122 93
- 128.2 3 1 ack 40 ------- 0 3.0 1.5 122 93
r 128.201213 3 1 ack 40 ------- 0 3.0 1.5 122 93
+ 128.445888 2 1 ack 59 ---A--- 0 2.0 1.6 147 94
- 128.445888 2 1 ack 59 ---A--- 0 2.0 1.6 147 94
r 128.447203 2 1 ack 59 ---A--- 0 2.0 1.6 147 94
+ 128.447342 1 2 tcp 59 ---A--- 0 1.6 2.0 228 95
- 128.447342 1 2 tcp 59 ---A--- 0 1.6 2.0 228 95
r 128.448656 1 2 tcp 59 ---A--- 0 1.6 2.0 228 95
+ 128.5 2 1 ack 40 ------- 0 2.0 1.6 166 96
- 128.5 2 1 ack 40 ------- 0 2.0 1.6 166 96
r 128.501213 2 1 ack 40 ------- 0 2.0 1.6 166 96
+ 185.63959 1 0 ack 59 ---A--- 0 1.1 0.2 168 97
- 185.63959 1 0 ack 59 ---A--- 0 1.1 0.2 168 97
r 185.640905 1 0 ack 59 ---A--- 0 1.1 0.2 168 97
+ 185.641043 0 1 tcp 59 ---A--- 0 0.2 1.1 166 98
- 185.641043 0 1 tcp 59 ---A--- 0 0.2 1.1 166 98
r 185.642358 0 1 tcp 59 ---A--- 0 0.2 1.1 166 98
+ 185.7 1 0 ack 40 ------- 0 1.1 0.2 187 99
- 185.7 1 0 ack 40 ------- 0 1.1 0.2 187 99
r 185.701213 1 0 ack 40 ------- 0 1.1 0.2 187 99
+ 188.177979 3 1 ack 59 ---A--- 0 3.0 1.5 122 100
- 188.177979 3 1 ack 59 ---A--- 0 3.0 1.5 122 100
r 188.179294 3 1 ack 59 ---A--- 0 3.0 1.5 122 100
+ 188.179432 1 3 tcp 59 ---A--- 0 1.5 3.0 351 101
- 188.179432 1 3 tcp 59 ---A--- 0 1.5 3.0 351 101
r 188.180747 1 3 tcp 59 ---A--- 0 1.5 3.0 351 101
+ 188.2 3 1 ack 40 ------- 0 3.0 1.5 141 102
- 188.2 3 1 ack 40 ------- 0 3.0 1.5 141 102
r 188.201213 3 1 ack 40 ------- 0 3.0 1.5 141 102
+ 188.445888 2 1 ack 59 ---A--- 0 2.0 1.6 166 103
- 188.445888 2 1 ack 59 ---A--- 0 2.0 1.6 166 103
r 188.447203 2 1 ack 59 ---A--- 0 2.0 1.6 166 103
+ 188.447342 1 2 tcp 59 ---A--- 0 1.6 2.0 247 104
- 188.447342 1 2 tcp 59 ---A--- 0 1.6 2.0 247 104
r 188.448656 1 2 tcp 59 ---A--- 0 1.6 2.0 247 104
+ 188.5 2 1 ack 40 ------- 0 2.0 1.6 185 105
- 188.5 2 1 ack 40 ------- 0 2.0 1.6 185 105
r 188.501213 2 1 ack 40 ------- 0 2.0 1.6 185 105
+ 245.63959 1 0 ack 59 ---A--- 0 1.1 0.2 187 106
- 245.63959 1 0 ack 59 ---A--- 0 1.1 0.2 187 106
r 245.640905 1 0 ack 59 ---A--- 0 1.1 0.2 187 106
+ 245.641043 0 1 tcp 59 ---A--- 0 0.2 1.1 185 107
- 245.641043 0 1 tcp 59 ---A--- 0 0.2 1.1 185 107
r 245.642358 0 1 tcp 59 ---A--- 0 0.2 1.1 185 107
+ 245.7 1 0 ack 40 ------- 0 1.1 0.2 206 108
- 245.7 1 0 ack 40 ------- 0 1.1 0.2 206 108
r 245.701213 1 0 ack 40 ------- 0 1.1 0.2 206 108
+ 248.177979 3 1 ack 59 ---A--- 0 3.0 1.5 141 109
- 248.177979 3 1 ack 59 ---A--- 0 3.0 1.5 141 109
r 248.179294 3 1 ack 59 ---A--- 0 3.0 1.5 141 109
+ 248.179432 1 3 tcp 59 ---A--- 0 1.5 3.0 370 110
- 248.179432 1 3 tcp 59 ---A--- 0 1.5 3.0 370 110
r 248.180747 1 3 tcp 59 ---A--- 0 1.5 3.0 370 110
+ 248.2 3 1 ack 40 ------- 0 3.0 1.5 160 111
- 248.2 3 1 ack 40 ------- 0 3.0 1.5 160 111
r 248.201213 3 1 ack 40 ------- 0 3.0 1.5 160 111
+ 248.445888 2 1 ack 59 ---A--- 0 2.0 1.6 185 112
- 248.445888 2 1 ack 59 ---A--- 0 2.0 1.6 185 112
r 248.447203 2 1 ack 59 ---A--- 0 2.0 1.6 185 112
+ 248.447342 1 2 tcp 59 ---A--- 0 1.6 2.0 266 113
- 248.447342 1 2 tcp 59 ---A--- 0 1.6 2.0 266 113
r 248.448656 1 2 tcp 59 ---A--- 0 1.6 2.0 266 113
+ 248.5 2 1 ack 40 ------- 0 2.0 1.6 204 114
- 248.5 2 1 ack 40 ------- 0 2.0 1.6 204 114
r 248.501213 2 1 ack 40 ------- 0 2.0 1.6 204 114
