+ 5.138409 1 2 tcp 40 ------- 0 1.1 2.0 0 0
- 5.138409 1 2 tcp 40 ------- 0 1.1 2.0 0 0
r 5.139622 1 2 tcp 40 ------- 0 1.1 2.0 0 0
+ 5.139622 2 1 ack 40 ------- 0 2.0 1.1 0 1
- 5.139622 2 1 ack 40 ------- 0 2.0 1.1 0 1
r 5.140835 2 1 ack 40 ------- 0 2.0 1.1 0 1
+ 5.140835 1 2 tcp 40 ------- 0 1.1 2.0 1 2
- 5.140835 1 2 tcp 40 ------- 0 1.1 2.0 1 2
+ 5.140835 1 2 tcp 40 ------- 0 1.1 2.0 1 3
+ 5.140835 1 2 tcp 85 ------- 0 1.1 2.0 1 4
- 5.141049 1 2 tcp 40 ------- 0 1.1 2.0 1 3
- 5.141262 1 2 tcp 85 ------- 0 1.1 2.0 1 4
r 5.142049 1 2 tcp 40 ------- 0 1.1 2.0 1 2
+ 5.142049 2 1 ack 40 ------- 0 2.0 1.1 1 5
- 5.142049 2 1 ack 40 ------- 0 2.0 1.1 1 5
r 5.142262 1 2 tcp 40 ------- 0 1.1 2.0 1 3
r 5.142715 1 2 tcp 85 ------- 0 1.1 2.0 1 4
r 5.143262 2 1 ack 40 ------- 0 2.0 1.1 1 5
+ 5.143262 1 2 tcp 40 ------- 0 1.1 2.0 46 6
- 5.143262 1 2 tcp 40 ------- 0 1.1 2.0 46 6
r 5.144475 1 2 tcp 40 ------- 0 1.1 2.0 46 6
+ 5.340835 1 2 tcp 85 ------- 0 1.1 2.0 1 7
- 5.340835 1 2 tcp 85 ------- 0 1.1 2.0 1 7
r 5.342289 1 2 tcp 85 ------- 0 1.1 2.0 1 7
+ 5.342289 2 1 ack 40 ------- 0 2.0 1.1 2 8
- 5.342289 2 1 ack 40 ------- 0 2.0 1.1 2 8
r 5.343502 2 1 ack 40 ------- 0 2.0 1.1 2 8
+ 5.343502 1 2 tcp 40 ------- 0 1.1 2.0 46 9
- 5.343502 1 2 tcp 40 ------- 0 1.1 2.0 46 9
r 5.344715 1 2 tcp 40 ------- 0 1.1 2.0 46 9
+ 5.344715 2 1 ack 40 ------- 0 2.0 1.1 2 10
- 5.344715 2 1 ack 40 ------- 0 2.0 1.1 2 10
r 5.345929 2 1 ack 40 ------- 0 2.0 1.1 2 10
+ 5.705658 1 0 tcp 40 ------- 0 1.2 0.0 0 11
- 5.705658 1 0 tcp 40 ------- 0 1.2 0.0 0 11
r 5.706871 1 0 tcp 40 ------- 0 1.2 0.0 0 11
+ 5.706871 0 1 ack 40 ------- 0 0.0 1.2 0 12
- 5.706871 0 1 ack 40 ------- 0 0.0 1.2 0 12
r 5.708085 0 1 ack 40 ------- 0 0.0 1.2 0 12
+ 5.708085 1 0 tcp 40 ------- 0 1.2 0.0 1 13
- 5.708085 1 0 tcp 40 ------- 0 1.2 0.0 1 13
+ 5.708085 1 0 tcp 40 ------- 0 1.2 0.0 1 14
+ 5.708085 1 0 tcp 85 ------- 0 1.2 0.0 1 15
- 5.708298 1 0 tcp 40 ------- 0 1.2 0.0 1 14
- 5.708511 1 0 tcp 85 ------- 0 1.2 0.0 1 15
r 5.709298 1 0 tcp 40 ------- 0 1.2 0.0 1 13
+ 5.709298 0 1 ack 40 ------- 0 0.0 1.2 1 16
- 5.709298 0 1 ack 40 ------- 0 0.0 1.2 1 16
r 5.709511 1 0 tcp 40 ------- 0 1.2 0.0 1 14
r 5.709965 1 0 tcp 85 ------- 0 1.2 0.0 1 15
r 5.710511 0 1 ack 40 ------- 0 0.0 1.2 1 16
+ 5.710511 1 0 tcp 40 ------- 0 1.2 0.0 46 17
- 5.710511 1 0 tcp 40 ------- 0 1.2 0.0 46 17
r 5.711725 1 0 tcp 40 ------- 0 1.2 0.0 46 17
+ 5.74168 1 3 tcp 40 ------- 0 1.3 3.0 0 18
- 5.74168 1 3 tcp 40 ------- 0 1.3 3.0 0 18
r 5.742893 1 3 tcp 40 ------- 0 1.3 3.0 0 18
+ 5.742893 3 1 ack 40 ------- 0 3.0 1.3 0 19
- 5.742893 3 1 ack 40 ------- 0 3.0 1.3 0 19
r 5.744107 3 1 ack 40 ------- 0 3.0 1.3 0 19
+ 5.744107 1 3 tcp 40 ------- 0 1.3 3.0 1 20
- 5.744107 1 3 tcp 40 ------- 0 1.3 3.0 1 20
+ 5.744107 1 3 tcp 40 ------- 0 1.3 3.0 1 21
+ 5.744107 1 3 tcp 85 ------- 0 1.3 3.0 1 22
- 5.74432 1 3 tcp 40 ------- 0 1.3 3.0 1 21
- 5.744533 1 3 tcp 85 ------- 0 1.3 3.0 1 22
r 5.74532 1 3 tcp 40 ------- 0 1.3 3.0 1 20
+ 5.74532 3 1 ack 40 ------- 0 3.0 1.3 1 23
- 5.74532 3 1 ack 40 ------- 0 3.0 1.3 1 23
r 5.745533 1 3 tcp 40 ------- 0 1.3 3.0 1 21
r 5.745987 1 3 tcp 85 ------- 0 1.3 3.0 1 22
r 5.746533 3 1 ack 40 ------- 0 3.0 1.3 1 23
+ 5.746533 1 3 tcp 40 ------- 0 1.3 3.0 46 24
- 5.746533 1 3 tcp 40 ------- 0 1.3 3.0 46 24
r 5.747747 1 3 tcp 40 ------- 0 1.3 3.0 46 24
+ 5.760047 0 3 tcp 40 ------- 0 0.2 3.1 0 25
- 5.760047 0 3 tcp 40 ------- 0 0.2 3.1 0 25
r 5.761261 0 3 tcp 40 ------- 0 0.2 3.1 0 25
+ 5.761261 3 0 ack 40 ------- 0 3.1 0.2 0 26
- 5.761261 3 0 ack 40 ------- 0 3.1 0.2 0 26
r 5.762474 3 0 ack 40 ------- 0 3.1 0.2 0 26
+ 5.762474 0 3 tcp 40 ------- 0 0.2 3.1 1 27
- 5.762474 0 3 tcp 40 ------- 0 0.2 3.1 1 27
+ 5.762474 0 3 tcp 40 ------- 0 0.2 3.1 1 28
+ 5.762474 0 3 tcp 85 ------- 0 0.2 3.1 1 29
- 5.762687 0 3 tcp 40 ------- 0 0.2 3.1 1 28
- 5.762901 0 3 tcp 85 ------- 0 0.2 3.1 1 29
r 5.763687 0 3 tcp 40 ------- 0 0.2 3.1 1 27
+ 5.763687 3 0 ack 40 ------- 0 3.1 0.2 1 30
- 5.763687 3 0 ack 40 ------- 0 3.1 0.2 1 30
r 5.763901 0 3 tcp 40 ------- 0 0.2 3.1 1 28
r 5.764354 0 3 tcp 85 ------- 0 0.2 3.1 1 29
r 5.764901 3 0 ack 40 ------- 0 3.1 0.2 1 30
+ 5.764901 0 3 tcp 40 ------- 0 0.2 3.1 46 31
- 5.764901 0 3 tcp 40 ------- 0 0.2 3.1 46 31
r 5.766114 0 3 tcp 40 ------- 0 0.2 3.1 46 31
+ 5.908085 1 0 tcp 85 ------- 0 1.2 0.0 1 32
- 5.908085 1 0 tcp 85 ------- 0 1.2 0.0 1 32
r 5.909538 1 0 tcp 85 ------- 0 1.2 0.0 1 32
+ 5.909538 0 1 ack 40 ------- 0 0.0 1.2 2 33
- 5.909538 0 1 ack 40 ------- 0 0.0 1.2 2 33
r 5.910751 0 1 ack 40 ------- 0 0.0 1.2 2 33
+ 5.910751 1 0 tcp 40 ------- 0 1.2 0.0 46 34
- 5.910751 1 0 tcp 40 ------- 0 1.2 0.0 46 34
r 5.911965 1 0 tcp 40 ------- 0 1.2 0.0 46 34
+ 5.911965 0 1 ack 40 ------- 0 0.0 1.2 2 35
- 5.911965 0 1 ack 40 ------- 0 0.0 1.2 2 35
r 5.913178 0 1 ack 40 ------- 0 0.0 1.2 2 35
+ 5.944107 1 3 tcp 85 ------- 0 1.3 3.0 1 36
- 5.944107 1 3 tcp 85 ------- 0 1.3 3.0 1 36
r 5.94556 1 3 tcp 85 ------- 0 1.3 3.0 1 36
+ 5.94556 3 1 ack 40 ------- 0 3.0 1.3 2 37
- 5.94556 3 1 ack 40 ------- 0 3.0 1.3 2 37
r 5.946773 3 1 ack 40 ------- 0 3.0 1.3 2 37
+ 5.946773 1 3 tcp 40 ------- 0 1.3 3.0 46 38
- 5.946773 1 3 tcp 40 ------- 0 1.3 3.0 46 38
r 5.947987 1 3 tcp 40 ------- 0 1.3 3.0 46 38
+ 5.947987 3 1 ack 40 ------- 0 3.0 1.3 2 39
- 5.947987 3 1 ack 40 ------- 0 3.0 1.3 2 39
r 5.9492 3 1 ack 40 ------- 0 3.0 1.3 2 39
+ 5.962474 0 3 tcp 85 ------- 0 0.2 3.1 1 40
- 5.962474 0 3 tcp 85 ------- 0 0.2 3.1 1 40
r 5.963927 0 3 tcp 85 ------- 0 0.2 3.1 1 40
+ 5.963927 3 0 ack 40 ------- 0 3.1 0.2 2 41
- 5.963927 3 0 ack 40 ------- 0 3.1 0.2 2 41
r 5.965141 3 0 ack 40 ------- 0 3.1 0.2 2 41
+ 5.965141 0 3 tcp 40 ------- 0 0.2 3.1 46 42
- 5.965141 0 3 tcp 40 ------- 0 0.2 3.1 46 42
r 5.966354 0 3 tcp 40 ------- 0 0.2 3.1 46 42
+ 5.966354 3 0 ack 40 ------- 0 3.1 0.2 2 43
- 5.966354 3 0 ack 40 ------- 0 3.1 0.2 2 43
r 5.967567 3 0 ack 40 ------- 0 3.1 0.2 2 43
+ 5.995598 3 0 tcp 40 ------- 0 3.3 0.1 0 44
- 5.995598 3 0 tcp 40 ------- 0 3.3 0.1 0 44
r 5.996811 3 0 tcp 40 ------- 0 3.3 0.1 0 44
+ 5.996811 0 3 ack 40 ------- 0 0.1 3.3 0 45
- 5.996811 0 3 ack 40 ------- 0 0.1 3.3 0 45
r 5.998025 0 3 ack 40 ------- 0 0.1 3.3 0 45
+ 5.998025 3 0 tcp 40 ------- 0 3.3 0.1 1 46
- 5.998025 3 0 tcp 40 ------- 0 3.3 0.1 1 46
+ 5.998025 3 0 tcp 40 ------- 0 3.3 0.1 1 47
+ 5.998025 3 0 tcp 85 ------- 0 3.3 0.1 1 48
- 5.998238 3 0 tcp 40 ------- 0 3.3 0.1 1 47
- 5.998451 3 0 tcp 85 ------- 0 3.3 0.1 1 48
r 5.999238 3 0 tcp 40 ------- 0 3.3 0.1 1 46
r 5.999451 3 0 tcp 40 ------- 0 3.3 0.1 1 47
r 5.999905 3 0 tcp 85 ------- 0 3.3 0.1 1 48
+ 5.999905 0 3 ack 85 ------- 0 0.1 3.3 1 49
- 5.999905 0 3 ack 85 ------- 0 0.1 3.3 1 49
r 6.001358 0 3 ack 85 ------- 0 0.1 3.3 1 49
+ 6.001358 3 0 tcp 59 ------- 0 3.3 0.1 46 50
- 6.001358 3 0 tcp 59 ------- 0 3.3 0.1 46 50
r 6.002673 3 0 tcp 59 ------- 0 3.3 0.1 46 50
+ 6.002673 0 3 ack 59 ------- 0 0.1 3.3 46 51
- 6.002673 0 3 ack 59 ------- 0 0.1 3.3 46 51
r 6.003987 0 3 ack 59 ------- 0 0.1 3.3 46 51
+ 6.003987 3 0 tcp 59 ------- 0 3.3 0.1 65 52
- 6.003987 3 0 tcp 59 ------- 0 3.3 0.1 65 52
r 6.005302 3 0 tcp 59 ------- 0 3.3 0.1 65 52
+ 6.005302 0 3 ack 59 ------- 0 0.1 3.3 65 53
- 6.005302 0 3 ack 59 ------- 0 0.1 3.3 65 53
r 6.006617 0 3 ack 59 ------- 0 0.1 3.3 65 53
+ 6.1 3 0 tcp 40 ------- 0 3.3 0.1 84 54
- 6.1 3 0 tcp 40 ------- 0 3.3 0.1 84 54
r 6.101213 3 0 tcp 40 ------- 0 3.3 0.1 84 54
+ 6.115201 2 0 tcp 40 ------- 0 2.2 0.3 0 55
- 6.115201 2 0 tcp 40 ------- 0 2.2 0.3 0 55
r 6.116414 2 0 tcp 40 ------- 0 2.2 0.3 0 55
+ 6.116414 0 2 ack 40 ------- 0 0.3 2.2 0 56
- 6.116414 0 2 ack 40 ------- 0 0.3 2.2 0 56
r 6.117627 0 2 ack 40 ------- 0 0.3 2.2 0 56
+ 6.117627 2 0 tcp 40 ------- 0 2.2 0.3 1 57
- 6.117627 2 0 tcp 40 ------- 0 2.2 0.3 1 57
+ 6.117627 2 0 tcp 40 ------- 0 2.2 0.3 1 58
+ 6.117627 2 0 tcp 85 ------- 0 2.2 0.3 1 59
- 6.117841 2 0 tcp 40 ------- 0 2.2 0.3 1 58
- 6.118054 2 0 tcp 85 ------- 0 2.2 0.3 1 59
r 6.118841 2 0 tcp 40 ------- 0 2.2 0.3 1 57
+ 6.118841 0 2 ack 40 ------- 0 0.3 2.2 1 60
- 6.118841 0 2 ack 40 ------- 0 0.3 2.2 1 60
r 6.119054 2 0 tcp 40 ------- 0 2.2 0.3 1 58
r 6.119507 2 0 tcp 85 ------- 0 2.2 0.3 1 59
r 6.120054 0 2 ack 40 ------- 0 0.3 2.2 1 60
+ 6.120054 2 0 tcp 40 ------- 0 2.2 0.3 46 61
- 6.120054 2 0 tcp 40 ------- 0 2.2 0.3 46 61
r 6.121267 2 0 tcp 40 ------- 0 2.2 0.3 46 61
+ 6.163678 3 1 tcp 40 ------- 0 3.4 1.0 0 62
- 6.163678 3 1 tcp 40 ------- 0 3.4 1.0 0 62
r 6.164891 3 1 tcp 40 ------- 0 3.4 1.0 0 62
+ 6.164891 1 3 ack 40 ------- 0 1.0 3.4 0 63
- 6.164891 1 3 ack 40 ------- 0 1.0 3.4 0 63
r 6.166105 1 3 ack 40 ------- 0 1.0 3.4 0 63
+ 6.166105 3 1 tcp 40 ------- 0 3.4 1.0 1 64
- 6.166105 3 1 tcp 40 ------- 0 3.4 1.0 1 64
+ 6.166105 3 1 tcp 40 ------- 0 3.4 1.0 1 65
+ 6.166105 3 1 tcp 85 ------- 0 3.4 1.0 1 66
- 6.166318 3 1 tcp 40 ------- 0 3.4 1.0 1 65
- 6.166531 3 1 tcp 85 ------- 0 3.4 1.0 1 66
r 6.167318 3 1 tcp 40 ------- 0 3.4 1.0 1 64
r 6.167531 3 1 tcp 40 ------- 0 3.4 1.0 1 65
r 6.167985 3 1 tcp 85 ------- 0 3.4 1.0 1 66
+ 6.167985 1 3 ack 85 ------- 0 1.0 3.4 1 67
- 6.167985 1 3 ack 85 ------- 0 1.0 3.4 1 67
r 6.169438 1 3 ack 85 ------- 0 1.0 3.4 1 67
+ 6.169438 3 1 tcp 59 ------- 0 3.4 1.0 46 68
- 6.169438 3 1 tcp 59 ------- 0 3.4 1.0 46 68
r 6.170753 3 1 tcp 59 ------- 0 3.4 1.0 46 68
+ 6.170753 1 3 ack 59 ------- 0 1.0 3.4 46 69
- 6.170753 1 3 ack 59 ------- 0 1.0 3.4 46 69
r 6.172067 1 3 ack 59 ------- 0 1.0 3.4 46 69
+ 6.172067 3 1 tcp 59 ------- 0 3.4 1.0 65 70
- 6.172067 3 1 tcp 59 ------- 0 3.4 1.0 65 70
r 6.173382 3 1 tcp 59 ------- 0 3.4 1.0 65 70
+ 6.173382 1 3 ack 59 ------- 0 1.0 3.4 65 71
- 6.173382 1 3 ack 59 ------- 0 1.0 3.4 65 71
r 6.174697 1 3 ack 59 ------- 0 1.0 3.4 65 71
+ 6.2 3 1 tcp 40 ------- 0 3.4 1.0 84 72
- 6.2 3 1 tcp 40 ------- 0 3.4 1.0 84 72
r 6.201213 3 1 tcp 40 ------- 0 3.4 1.0 84 72
+ 6.317627 2 0 tcp 85 ------- 0 2.2 0.3 1 73
- 6.317627 2 0 tcp 85 ------- 0 2.2 0.3 1 73
r 6.319081 2 0 tcp 85 ------- 0 2.2 0.3 1 73
+ 6.319081 0 2 ack 40 ------- 0 0.3 2.2 2 74
- 6.319081 0 2 ack 40 ------- 0 0.3 2.2 2 74
r 6.320294 0 2 ack 40 ------- 0 0.3 2.2 2 74
+ 6.320294 2 0 tcp 40 ------- 0 2.2 0.3 46 75
- 6.320294 2 0 tcp 40 ------- 0 2.2 0.3 46 75
r 6.321507 2 0 tcp 40 ------- 0 2.2 0.3 46 75
+ 6.321507 0 2 ack 40 ------- 0 0.3 2.2 2 76
- 6.321507 0 2 ack 40 ------- 0 0.3 2.2 2 76
r 6.322721 0 2 ack 40 ------- 0 0.3 2.2 2 76
+ 6.507615 3 2 tcp 40 ------- 0 3.5 2.1 0 77
- 6.507615 3 2 tcp 40 ------- 0 3.5 2.1 0 77
r 6.508828 3 2 tcp 40 ------- 0 3.5 2.1 0 77
+ 6.508828 2 3 ack 40 ------- 0 2.1 3.5 0 78
- 6.508828 2 3 ack 40 ------- 0 2.1 3.5 0 78
r 6.510042 2 3 ack 40 ------- 0 2.1 3.5 0 78
+ 6.510042 3 2 tcp 40 ------- 0 3.5 2.1 1 79
- 6.510042 3 2 tcp 40 ------- 0 3.5 2.1 1 79
+ 6.510042 3 2 tcp 40 ------- 0 3.5 2.1 1 80
+ 6.510042 3 2 tcp 85 ------- 0 3.5 2.1 1 81
- 6.510255 3 2 tcp 40 ------- 0 3.5 2.1 1 80
- 6.510468 3 2 tcp 85 ------- 0 3.5 2.1 1 81
r 6.511255 3 2 tcp 40 ------- 0 3.5 2.1 1 79
+ 6.511255 2 3 ack 40 ------- 0 2.1 3.5 1 82
- 6.511255 2 3 ack 40 ------- 0 2.1 3.5 1 82
r 6.511468 3 2 tcp 40 ------- 0 3.5 2.1 1 80
r 6.511922 3 2 tcp 85 ------- 0 3.5 2.1 1 81
r 6.512468 2 3 ack 40 ------- 0 2.1 3.5 1 82
+ 6.512468 3 2 tcp 40 ------- 0 3.5 2.1 46 83
- 6.512468 3 2 tcp 40 ------- 0 3.5 2.1 46 83
r 6.513682 3 2 tcp 40 ------- 0 3.5 2.1 46 83
+ 6.586841 0 2 tcp 40 ------- 0 0.5 2.3 0 84
- 6.586841 0 2 tcp 40 ------- 0 0.5 2.3 0 84
r 6.588054 0 2 tcp 40 ------- 0 0.5 2.3 0 84
+ 6.588054 2 0 ack 40 ------- 0 2.3 0.5 0 85
- 6.588054 2 0 ack 40 ------- 0 2.3 0.5 0 85
r 6.589267 2 0 ack 40 ------- 0 2.3 0.5 0 85
+ 6.589267 0 2 tcp 40 ------- 0 0.5 2.3 1 86
- 6.589267 0 2 tcp 40 ------- 0 0.5 2.3 1 86
+ 6.589267 0 2 tcp 40 ------- 0 0.5 2.3 1 87
+ 6.589267 0 2 tcp 85 ------- 0 0.5 2.3 1 88
- 6.589481 0 2 tcp 40 ------- 0 0.5 2.3 1 87
- 6.589694 0 2 tcp 85 ------- 0 0.5 2.3 1 88
r 6.590481 0 2 tcp 40 ------- 0 0.5 2.3 1 86
r 6.590694 0 2 tcp 40 ------- 0 0.5 2.3 1 87
r 6.591147 0 2 tcp 85 ------- 0 0.5 2.3 1 88
+ 6.591147 2 0 ack 85 ------- 0 2.3 0.5 1 89
- 6.591147 2 0 ack 85 ------- 0 2.3 0.5 1 89
r 6.592601 2 0 ack 85 ------- 0 2.3 0.5 1 89
+ 6.592601 0 2 tcp 59 ------- 0 0.5 2.3 46 90
- 6.592601 0 2 tcp 59 ------- 0 0.5 2.3 46 90
r 6.593915 0 2 tcp 59 ------- 0 0.5 2.3 46 90
+ 6.593915 2 0 ack 59 ------- 0 2.3 0.5 46 91
- 6.593915 2 0 ack 59 ------- 0 2.3 0.5 46 91
r 6.59523 2 0 ack 59 ------- 0 2.3 0.5 46 91
+ 6.59523 0 2 tcp 59 ------- 0 0.5 2.3 65 92
- 6.59523 0 2 tcp 59 ------- 0 0.5 2.3 65 92
r 6.596545 0 2 tcp 59 ------- 0 0.5 2.3 65 92
+ 6.596545 2 0 ack 59 ------- 0 2.3 0.5 65 93
- 6.596545 2 0 ack 59 ------- 0 2.3 0.5 65 93
r 6.597859 2 0 ack 59 ------- 0 2.3 0.5 65 93
+ 6.6 0 2 tcp 40 ------- 0 0.5 2.3 84 94
- 6.6 0 2 tcp 40 ------- 0 0.5 2.3 84 94
r 6.601213 0 2 tcp 40 ------- 0 0.5 2.3 84 94
+ 6.710042 3 2 tcp 85 ------- 0 3.5 2.1 1 95
- 6.710042 3 2 tcp 85 ------- 0 3.5 2.1 1 95
r 6.711495 3 2 tcp 85 ------- 0 3.5 2.1 1 95
+ 6.711495 2 3 ack 40 ------- 0 2.1 3.5 2 96
- 6.711495 2 3 ack 40 ------- 0 2.1 3.5 2 96
r 6.712708 2 3 ack 40 ------- 0 2.1 3.5 2 96
+ 6.712708 3 2 tcp 40 ------- 0 3.5 2.1 46 97
- 6.712708 3 2 tcp 40 ------- 0 3.5 2.1 46 97
r 6.713922 3 2 tcp 40 ------- 0 3.5 2.1 46 97
+ 6.713922 2 3 ack 40 ------- 0 2.1 3.5 2 98
- 6.713922 2 3 ack 40 ------- 0 2.1 3.5 2 98
r 6.715135 2 3 ack 40 ------- 0 2.1 3.5 2 98
+ 7.003778 2 3 tcp 40 ------- 0 2.5 3.2 0 99
- 7.003778 2 3 tcp 40 ------- 0 2.5 3.2 0 99
r 7.004991 2 3 tcp 40 ------- 0 2.5 3.2 0 99
+ 7.004991 3 2 ack 40 ------- 0 3.2 2.5 0 100
- 7.004991 3 2 ack 40 ------- 0 3.2 2.5 0 100
r 7.006205 3 2 ack 40 ------- 0 3.2 2.5 0 100
+ 7.006205 2 3 tcp 40 ------- 0 2.5 3.2 1 101
- 7.006205 2 3 tcp 40 ------- 0 2.5 3.2 1 101
+ 7.006205 2 3 tcp 40 ------- 0 2.5 3.2 1 102
+ 7.006205 2 3 tcp 85 ------- 0 2.5 3.2 1 103
- 7.006418 2 3 tcp 40 ------- 0 2.5 3.2 1 102
- 7.006631 2 3 tcp 85 ------- 0 2.5 3.2 1 103
r 7.007418 2 3 tcp 40 ------- 0 2.5 3.2 1 101
r 7.007631 2 3 tcp 40 ------- 0 2.5 3.2 1 102
r 7.008085 2 3 tcp 85 ------- 0 2.5 3.2 1 103
+ 7.008085 3 2 ack 85 ------- 0 3.2 2.5 1 104
- 7.008085 3 2 ack 85 ------- 0 3.2 2.5 1 104
r 7.009538 3 2 ack 85 ------- 0 3.2 2.5 1 104
+ 7.009538 2 3 tcp 59 ------- 0 2.5 3.2 46 105
- 7.009538 2 3 tcp 59 ------- 0 2.5 3.2 46 105
r 7.010853 2 3 tcp 59 ------- 0 2.5 3.2 46 105
+ 7.010853 3 2 ack 59 ------- 0 3.2 2.5 46 106
- 7.010853 3 2 ack 59 ------- 0 3.2 2.5 46 106
r 7.012167 3 2 ack 59 ------- 0 3.2 2.5 46 106
+ 7.012167 2 3 tcp 59 ------- 0 2.5 3.2 65 107
- 7.012167 2 3 tcp 59 ------- 0 2.5 3.2 65 107
r 7.013482 2 3 tcp 59 ------- 0 2.5 3.2 65 107
+ 7.013482 3 2 ack 59 ------- 0 3.2 2.5 65 108
- 7.013482 3 2 ack 59 ------- 0 3.2 2.5 65 108
r 7.014797 3 2 ack 59 ------- 0 3.2 2.5 65 108
+ 7.1 2 3 tcp 40 ------- 0 2.5 3.2 84 109
- 7.1 2 3 tcp 40 ------- 0 2.5 3.2 84 109
r 7.101213 2 3 tcp 40 ------- 0 2.5 3.2 84 109
+ 7.695232 2 1 tcp 40 ------- 0 2.6 1.4 0 110
- 7.695232 2 1 tcp 40 ------- 0 2.6 1.4 0 110
r 7.696446 2 1 tcp 40 ------- 0 2.6 1.4 0 110
+ 7.696446 1 2 ack 40 ------- 0 1.4 2.6 0 111
- 7.696446 1 2 ack 40 ------- 0 1.4 2.6 0 111
r 7.697659 1 2 ack 40 ------- 0 1.4 2.6 0 111
+ 7.697659 2 1 tcp 40 ------- 0 2.6 1.4 1 112
- 7.697659 2 1 tcp 40 ------- 0 2.6 1.4 1 112
+ 7.697659 2 1 tcp 40 ------- 0 2.6 1.4 1 113
+ 7.697659 2 1 tcp 85 ------- 0 2.6 1.4 1 114
- 7.697872 2 1 tcp 40 ------- 0 2.6 1.4 1 113
- 7.698086 2 1 tcp 85 ------- 0 2.6 1.4 1 114
r 7.698872 2 1 tcp 40 ------- 0 2.6 1.4 1 112
r 7.699086 2 1 tcp 40 ------- 0 2.6 1.4 1 113
r 7.699539 2 1 tcp 85 ------- 0 2.6 1.4 1 114
+ 7.699539 1 2 ack 85 ------- 0 1.4 2.6 1 115
- 7.699539 1 2 ack 85 ------- 0 1.4 2.6 1 115
r 7.700992 1 2 ack 85 ------- 0 1.4 2.6 1 115
+ 7.700992 2 1 tcp 59 ------- 0 2.6 1.4 46 116
- 7.700992 2 1 tcp 59 ------- 0 2.6 1.4 46 116
r 7.702307 2 1 tcp 59 ------- 0 2.6 1.4 46 116
+ 7.702307 1 2 ack 59 ------- 0 1.4 2.6 46 117
- 7.702307 1 2 ack 59 ------- 0 1.4 2.6 46 117
r 7.703622 1 2 ack 59 ------- 0 1.4 2.6 46 117
+ 7.703622 2 1 tcp 59 ------- 0 2.6 1.4 65 118
- 7.703622 2 1 tcp 59 ------- 0 2.6 1.4 65 118
r 7.704936 2 1 tcp 59 ------- 0 2.6 1.4 65 118
+ 7.704936 1 2 ack 59 ------- 0 1.4 2.6 65 119
- 7.704936 1 2 ack 59 ------- 0 1.4 2.6 65 119
r 7.706251 1 2 ack 59 ------- 0 1.4 2.6 65 119
+ 7.8 2 1 tcp 40 ------- 0 2.6 1.4 84 120
- 7.8 2 1 tcp 40 ------- 0 2.6 1.4 84 120
r 7.801213 2 1 tcp 40 ------- 0 2.6 1.4 84 120
+ 8.224628 0 1 tcp 40 ------- 0 0.6 1.5 0 121
- 8.224628 0 1 tcp 40 ------- 0 0.6 1.5 0 121
r 8.225842 0 1 tcp 40 ------- 0 0.6 1.5 0 121
+ 8.225842 1 0 ack 40 ------- 0 1.5 0.6 0 122
- 8.225842 1 0 ack 40 ------- 0 1.5 0.6 0 122
r 8.227055 1 0 ack 40 ------- 0 1.5 0.6 0 122
+ 8.227055 0 1 tcp 40 ------- 0 0.6 1.5 1 123
- 8.227055 0 1 tcp 40 ------- 0 0.6 1.5 1 123
+ 8.227055 0 1 tcp 40 ------- 0 0.6 1.5 1 124
+ 8.227055 0 1 tcp 85 ------- 0 0.6 1.5 1 125
- 8.227268 0 1 tcp 40 ------- 0 0.6 1.5 1 124
- 8.227482 0 1 tcp 85 ------- 0 0.6 1.5 1 125
r 8.228268 0 1 tcp 40 ------- 0 0.6 1.5 1 123
r 8.228482 0 1 tcp 40 ------- 0 0.6 1.5 1 124
r 8.228935 0 1 tcp 85 ------- 0 0.6 1.5 1 125
+ 8.228935 1 0 ack 85 ------- 0 1.5 0.6 1 126
- 8.228935 1 0 ack 85 ------- 0 1.5 0.6 1 126
r 8.230388 1 0 ack 85 ------- 0 1.5 0.6 1 126
+ 8.230388 0 1 tcp 59 ------- 0 0.6 1.5 46 127
- 8.230388 0 1 tcp 59 ------- 0 0.6 1.5 46 127
r 8.231703 0 1 tcp 59 ------- 0 0.6 1.5 46 127
+ 8.231703 1 0 ack 59 ------- 0 1.5 0.6 46 128
- 8.231703 1 0 ack 59 ------- 0 1.5 0.6 46 128
r 8.233018 1 0 ack 59 ------- 0 1.5 0.6 46 128
+ 8.233018 0 1 tcp 59 ------- 0 0.6 1.5 65 129
- 8.233018 0 1 tcp 59 ------- 0 0.6 1.5 65 129
r 8.234332 0 1 tcp 59 ------- 0 0.6 1.5 65 129
+ 8.234332 1 0 ack 59 ------- 0 1.5 0.6 65 130
- 8.234332 1 0 ack 59 ------- 0 1.5 0.6 65 130
r 8.235647 1 0 ack 59 ------- 0 1.5 0.6 65 130
+ 8.3 0 1 tcp 40 ------- 0 0.6 1.5 84 131
- 8.3 0 1 tcp 40 ------- 0 0.6 1.5 84 131
r 8.301213 0 1 tcp 40 ------- 0 0.6 1.5 84 131
+ 20 3 0 tcp 85 ---A--- 0 3.3 0.1 84 132
- 20 3 0 tcp 85 ---A--- 0 3.3 0.1 84 132
+ 20 3 1 tcp 85 ---A--- 0 3.4 1.0 84 133
- 20 3 1 tcp 85 ---A--- 0 3.4 1.0 84 133
+ 20 3 2 ack 85 ---A--- 0 3.2 2.5 84 134
- 20 3 2 ack 85 ---A--- 0 3.2 2.5 84 134
r 20.001453 3 0 tcp 85 ---A--- 0 3.3 0.1 84 132
r 20.001453 3 1 tcp 85 ---A--- 0 3.4 1.0 84 133
r 20.001453 3 2 ack 85 ---A--- 0 3.2 2.5 84 134
+ 20.001453 0 1 tcp 87 ---A--- 0 0.6 1.5 84 135
- 20.001453 0 1 tcp 87 ---A--- 0 0.6 1.5 84 135
+ 20.001453 1 0 ack 87 ---A--- 0 1.5 0.6 84 136
- 20.001453 1 0 ack 87 ---A--- 0 1.5 0.6 84 136
+ 20.001453 2 0 ack 87 ---A--- 0 2.3 0.5 84 137
- 20.001453 2 0 ack 87 ---A--- 0 2.3 0.5 84 137
+ 20.001453 0 2 tcp 87 ---A--- 0 0.5 2.3 84 138
- 20.001453 0 2 tcp 87 ---A--- 0 0.5 2.3 84 138
+ 20.001453 1 2 ack 87 ---A--- 0 1.4 2.6 84 139
- 20.001453 1 2 ack 87 ---A--- 0 1.4 2.6 84 139
+ 20.001453 2 1 tcp 87 ---A--- 0 2.6 1.4 84 140
- 20.001453 2 1 tcp 87 ---A--- 0 2.6 1.4 84 140
r 20.002917 0 1 tcp 87 ---A--- 0 0.6 1.5 84 135
r 20.002917 1 0 ack 87 ---A--- 0 1.5 0.6 84 136
r 20.002917 2 0 ack 87 ---A--- 0 2.3 0.5 84 137
r 20.002917 0 2 tcp 87 ---A--- 0 0.5 2.3 84 138
r 20.002917 1 2 ack 87 ---A--- 0 1.4 2.6 84 139
r 20.002917 2 1 tcp 87 ---A--- 0 2.6 1.4 84 140
+ 20.002917 0 3 ack 89 ---A--- 0 0.1 3.3 84 141
- 20.002917 0 3 ack 89 ---A--- 0 0.1 3.3 84 141
+ 20.002917 2 3 tcp 89 ---A--- 0 2.5 3.2 84 142
- 20.002917 2 3 tcp 89 ---A--- 0 2.5 3.2 84 142
+ 20.002917 1 3 ack 89 ---A--- 0 1.0 3.4 84 143
- 20.002917 1 3 ack 89 ---A--- 0 1.0 3.4 84 143
r 20.004392 0 3 ack 89 ---A--- 0 0.1 3.3 84 141
r 20.004392 2 3 tcp 89 ---A--- 0 2.5 3.2 84 142
r 20.004392 1 3 ack 89 ---A--- 0 1.0 3.4 84 143
+ 20.1 3 0 tcp 40 ------- 0 3.3 0.1 129 144
- 20.1 3 0 tcp 40 ------- 0 3.3 0.1 129 144
+ 20.1 3 1 tcp 40 ------- 0 3.4 1.0 129 145
- 20.1 3 1 tcp 40 ------- 0 3.4 1.0 129 145
+ 20.1 2 0 ack 67 ------- 0 2.3 0.5 131 146
- 20.1 2 0 ack 67 ------- 0 2.3 0.5 131 146
+ 20.1 0 2 tcp 40 ------- 0 0.5 2.3 131 147
- 20.1 0 2 tcp 40 ------- 0 0.5 2.3 131 147
+ 20.1 3 2 ack 40 ------- 0 3.2 2.5 129 148
- 20.1 3 2 ack 40 ------- 0 3.2 2.5 129 148
+ 20.1 1 2 ack 67 ------- 0 1.4 2.6 131 149
- 20.1 1 2 ack 67 ------- 0 1.4 2.6 131 149
+ 20.1 2 1 tcp 40 ------- 0 2.6 1.4 131 150
- 20.1 2 1 tcp 40 ------- 0 2.6 1.4 131 150
+ 20.1 1 0 ack 40 ------- 0 1.5 0.6 131 151
- 20.1 1 0 ack 40 ------- 0 1.5 0.6 131 151
+ 20.1 0 1 tcp 67 ------- 0 0.6 1.5 131 152
- 20.1 0 1 tcp 67 ------- 0 0.6 1.5 131 152
r 20.101213 3 0 tcp 40 ------- 0 3.3 0.1 129 144
r 20.101213 3 1 tcp 40 ------- 0 3.4 1.0 129 145
r 20.101213 0 2 tcp 40 ------- 0 0.5 2.3 131 147
r 20.101213 3 2 ack 40 ------- 0 3.2 2.5 129 148
r 20.101213 2 1 tcp 40 ------- 0 2.6 1.4 131 150
r 20.101213 1 0 ack 40 ------- 0 1.5 0.6 131 151
r 20.101357 2 0 ack 67 ------- 0 2.3 0.5 131 146
r 20.101357 1 2 ack 67 ------- 0 1.4 2.6 131 149
r 20.101357 0 1 tcp 67 ------- 0 0.6 1.5 131 152
+ 20.2 0 2 tcp 40 ------- 0 0.5 2.3 131 153
- 20.2 0 2 tcp 40 ------- 0 0.5 2.3 131 153
+ 20.2 2 1 tcp 40 ------- 0 2.6 1.4 131 154
- 20.2 2 1 tcp 40 ------- 0 2.6 1.4 131 154
+ 20.2 1 0 ack 40 ------- 0 1.5 0.6 131 155
- 20.2 1 0 ack 40 ------- 0 1.5 0.6 131 155
r 20.201213 0 2 tcp 40 ------- 0 0.5 2.3 131 153
r 20.201213 2 1 tcp 40 ------- 0 2.6 1.4 131 154
r 20.201213 1 0 ack 40 ------- 0 1.5 0.6 131 155
+ 50.001453 0 2 tcp 89 ---A--- 0 0.5 2.3 131 156
- 50.001453 0 2 tcp 89 ---A--- 0 0.5 2.3 131 156
+ 50.001453 2 1 tcp 89 ---A--- 0 2.6 1.4 131 157
- 50.001453 2 1 tcp 89 ---A--- 0 2.6 1.4 131 157
+ 50.001453 1 0 ack 89 ---A--- 0 1.5 0.6 131 158
- 50.001453 1 0 ack 89 ---A--- 0 1.5 0.6 131 158
r 50.002928 0 2 tcp 89 ---A--- 0 0.5 2.3 131 156
r 50.002928 2 1 tcp 89 ---A--- 0 2.6 1.4 131 157
r 50.002928 1 0 ack 89 ---A--- 0 1.5 0.6 131 158
+ 50.002928 2 3 tcp 91 ---A--- 0 2.5 3.2 133 159
- 50.002928 2 3 tcp 91 ---A--- 0 2.5 3.2 133 159
+ 50.002928 1 3 ack 91 ---A--- 0 1.0 3.4 133 160
- 50.002928 1 3 ack 91 ---A--- 0 1.0 3.4 133 160
+ 50.002928 0 3 ack 91 ---A--- 0 0.1 3.3 133 161
- 50.002928 0 3 ack 91 ---A--- 0 0.1 3.3 133 161
r 50.004413 2 3 tcp 91 ---A--- 0 2.5 3.2 133 159
r 50.004413 1 3 ack 91 ---A--- 0 1.0 3.4 133 160
r 50.004413 0 3 ack 91 ---A--- 0 0.1 3.3 133 161
+ 50.1 3 0 tcp 40 ------- 0 3.3 0.1 129 162
- 50.1 3 0 tcp 40 ------- 0 3.3 0.1 129 162
+ 50.1 3 1 tcp 40 ------- 0 3.4 1.0 129 163
- 50.1 3 1 tcp 40 ------- 0 3.4 1.0 129 163
+ 50.1 2 0 ack 40 ------- 0 2.3 0.5 158 164
- 50.1 2 0 ack 40 ------- 0 2.3 0.5 158 164
+ 50.1 3 2 ack 40 ------- 0 3.2 2.5 129 165
- 50.1 3 2 ack 40 ------- 0 3.2 2.5 129 165
+ 50.1 1 2 ack 40 ------- 0 1.4 2.6 158 166
- 50.1 1 2 ack 40 ------- 0 1.4 2.6 158 166
+ 50.1 0 1 tcp 40 ------- 0 0.6 1.5 158 167
- 50.1 0 1 tcp 40 ------- 0 0.6 1.5 158 167
r 50.101213 3 0 tcp 40 ------- 0 3.3 0.1 129 162
r 50.101213 3 1 tcp 40 ------- 0 3.4 1.0 129 163
r 50.101213 2 0 ack 40 ------- 0 2.3 0.5 158 164
r 50.101213 3 2 ack 40 ------- 0 3.2 2.5 129 165
r 50.101213 1 2 ack 40 ------- 0 1.4 2.6 158 166
r 50.101213 0 1 tcp 40 ------- 0 0.6 1.5 158 167
+ 65.999905 0 3 ack 59 ---A--- 0 0.1 3.3 184 168
- 65.999905 0 3 ack 59 ---A--- 0 0.1 3.3 184 168
r 66.001219 0 3 ack 59 ---A--- 0 0.1 3.3 184 168
+ 66.001358 3 0 tcp 59 ---A--- 0 3.3 0.1 129 169
- 66.001358 3 0 tcp 59 ---A--- 0 3.3 0.1 129 169
r 66.002673 3 0 tcp 59 ---A--- 0 3.3 0.1 129 169
+ 66.1 0 3 ack 40 ------- 0 0.1 3.3 203 170
- 66.1 0 3 ack 40 ------- 0 0.1 3.3 203 170
r 66.101213 0 3 ack 40 ------- 0 0.1 3.3 203 170
+ 66.167985 1 3 ack 59 ---A--- 0 1.0 3.4 184 171
- 66.167985 1 3 ack 59 ---A--- 0 1.0 3.4 184 171
r 66.169299 1 3 ack 59 ---A--- 0 1.0 3.4 184 171
+ 66.169438 3 1 tcp 59 ---A--- 0 3.4 1.0 129 172
- 66.169438 3 1 tcp 59 ---A--- 0 3.4 1.0 129 172
r 66.170753 3 1 tcp 59 ---A--- 0 3.4 1.0 129 172
+ 66.2 1 3 ack 40 ------- 0 1.0 3.4 203 173
- 66.2 1 3 ack 40 ------- 0 1.0 3.4 203 173
r 66.201213 1 3 ack 40 ------- 0 1.0 3.4 203 173
+ 66.591147 2 0 ack 59 ---A--- 0 2.3 0.5 158 174
- 66.591147 2 0 ack 59 ---A--- 0 2.3 0.5 158 174
r 66.592462 2 0 ack 59 ---A--- 0 2.3 0.5 158 174
+ 66.592601 0 2 tcp 59 ---A--- 0 0.5 2.3 180 175
- 66.592601 0 2 tcp 59 ---A--- 0 0.5 2.3 180 175
r 66.593915 0 2 tcp 59 ---A--- 0 0.5 2.3 180 175
+ 66.6 2 0 ack 40 ------- 0 2.3 0.5 177 176
- 66.6 2 0 ack 40 ------- 0 2.3 0.5 177 176
r 66.601213 2 0 ack 40 ------- 0 2.3 0.5 177 176
+ 67.008085 3 2 ack 59 ---A--- 0 3.2 2.5 129 177
- 67.008085 3 2 ack 59 ---A--- 0 3.2 2.5 129 177
r 67.009399 3 2 ack 59 ---A--- 0 3.2 2.5 129 177
+ 67.009538 2 3 tcp 59 ---A--- 0 2.5 3.2 184 178
- 67.009538 2 3 tcp 59 ---A--- 0 2.5 3.2 184 178
r 67.010853 2 3 tcp 59 ---A--- 0 2.5 3.2 184 178
+ 67.1 3 2 ack 40 ------- 0 3.2 2.5 148 179
- 67.1 3 2 ack 40 ------- 0 3.2 2.5 148 179
r 67.101213 3 2 ack 40 ------- 0 3.2 2.5 148 179
+ 67.699539 1 2 ack 59 ---A--- 0 1.4 2.6 158 180
- 67.699539 1 2 ack 59 ---A--- 0 1.4 2.6 158 180
r 67.700854 1 2 ack 59 ---A--- 0 1.4 2.6 158 180
+ 67.700992 2 1 tcp 59 ---A--- 0 2.6 1.4 180 181
- 67.700992 2 1 tcp 59 ---A--- 0 2.6 1.4 180 181
r 67.702307 2 1 tcp 59 ---A--- 0 2.6 1.4 180 181
+ 67.8 1 2 ack 40 ------- 0 1.4 2.6 177 182
- 67.8 1 2 ack 40 ------- 0 1.4 2.6 177 182
r 67.801213 1 2 ack 40 ------- 0 1.4 2.6 177 182
+ 68.228935 1 0 ack 59 ---A--- 0 1.5 0.6 180 183
- 68.228935 1 0 ack 59 ---A--- 0 1.5 0.6 180 183
r 68.23025 1 0 ack 59 ---A--- 0 1.5 0.6 180 183
+ 68.230388 0 1 tcp 59 ---A--- 0 0.6 1.5 158 184
- 68.230388 0 1 tcp 59 ---A--- 0 0.6 1.5 158 184
r 68.231703 0 1 tcp 59 ---A--- 0 0.6 1.5 158 184
+ 68.3 1 0 ack 40 ------- 0 1.5 0.6 199 185
- 68.3 1 0 ack 40 ------- 0 1.5 0.6 199 185
r 68.301213 1 0 ack 40 ------- 0 1.5 0.6 199 185
+ 80.001453 2 1 tcp 91 ---A--- 0 2.6 1.4 199 186
- 80.001453 2 1 tcp 91 ---A--- 0 2.6 1.4 199 186
+ 80.001453 0 2 tcp 91 ---A--- 0 0.5 2.3 199 187
- 80.001453 0 2 tcp 91 ---A--- 0 0.5 2.3 199 187
+ 80.001453 1 0 ack 91 ---A--- 0 1.5 0.6 199 188
- 80.001453 1 0 ack 91 ---A--- 0 1.5 0.6 199 188
r 80.002939 2 1 tcp 91 ---A--- 0 2.6 1.4 199 186
r 80.002939 0 2 tcp 91 ---A--- 0 0.5 2.3 199 187
r 80.002939 1 0 ack 91 ---A--- 0 1.5 0.6 199 188
+ 80.002939 1 2 ack 87 ---A--- 0 1.4 2.6 177 189
- 80.002939 1 2 ack 87 ---A--- 0 1.4 2.6 177 189
+ 80.002939 2 0 ack 87 ---A--- 0 2.3 0.5 177 190
- 80.002939 2 0 ack 87 ---A--- 0 2.3 0.5 177 190
+ 80.002939 0 1 tcp 87 ---A--- 0 0.6 1.5 177 191
- 80.002939 0 1 tcp 87 ---A--- 0 0.6 1.5 177 191
+ 80.002939 1 3 ack 67 ---A--- 0 1.0 3.4 203 192
- 80.002939 1 3 ack 67 ---A--- 0 1.0 3.4 203 192
+ 80.002939 2 3 tcp 67 ---A--- 0 2.5 3.2 203 193
- 80.002939 2 3 tcp 67 ---A--- 0 2.5 3.2 203 193
+ 80.002939 0 3 ack 67 ---A--- 0 0.1 3.3 203 194
- 80.002939 0 3 ack 67 ---A--- 0 0.1 3.3 203 194
r 80.004296 1 3 ack 67 ---A--- 0 1.0 3.4 203 192
r 80.004296 2 3 tcp 67 ---A--- 0 2.5 3.2 203 193
r 80.004296 0 3 ack 67 ---A--- 0 0.1 3.3 203 194
r 80.004403 1 2 ack 87 ---A--- 0 1.4 2.6 177 189
r 80.004403 2 0 ack 87 ---A--- 0 2.3 0.5 177 190
r 80.004403 0 1 tcp 87 ---A--- 0 0.6 1.5 177 191
+ 80.1 3 0 tcp 40 ------- 0 3.3 0.1 148 195
- 80.1 3 0 tcp 40 ------- 0 3.3 0.1 148 195
+ 80.1 3 1 tcp 40 ------- 0 3.4 1.0 148 196
- 80.1 3 1 tcp 40 ------- 0 3.4 1.0 148 196
+ 80.1 0 2 tcp 40 ------- 0 0.5 2.3 250 197
- 80.1 0 2 tcp 40 ------- 0 0.5 2.3 250 197
+ 80.1 3 2 ack 40 ------- 0 3.2 2.5 148 198
- 80.1 3 2 ack 40 ------- 0 3.2 2.5 148 198
+ 80.1 2 1 tcp 40 ------- 0 2.6 1.4 250 199
- 80.1 2 1 tcp 40 ------- 0 2.6 1.4 250 199
+ 80.1 1 0 ack 40 ------- 0 1.5 0.6 250 200
- 80.1 1 0 ack 40 ------- 0 1.5 0.6 250 200
r 80.101213 3 0 tcp 40 ------- 0 3.3 0.1 148 195
r 80.101213 3 1 tcp 40 ------- 0 3.4 1.0 148 196
r 80.101213 0 2 tcp 40 ------- 0 0.5 2.3 250 197
r 80.101213 3 2 ack 40 ------- 0 3.2 2.5 148 198
r 80.101213 2 1 tcp 40 ------- 0 2.6 1.4 250 199
r 80.101213 1 0 ack 40 ------- 0 1.5 0.6 250 200
+ 110.001453 0 2 tcp 87 ---A--- 0 0.5 2.3 250 201
- 110.001453 0 2 tcp 87 ---A--- 0 0.5 2.3 250 201
+ 110.001453 1 0 ack 87 ---A--- 0 1.5 0.6 250 202
- 110.001453 1 0 ack 87 ---A--- 0 1.5 0.6 250 202
+ 110.001453 2 1 tcp 87 ---A--- 0 2.6 1.4 250 203
- 110.001453 2 1 tcp 87 ---A--- 0 2.6 1.4 250 203
r 110.002917 0 2 tcp 87 ---A--- 0 0.5 2.3 250 201
r 110.002917 1 0 ack 87 ---A--- 0 1.5 0.6 250 202
r 110.002917 2 1 tcp 87 ---A--- 0 2.6 1.4 250 203
+ 110.002917 2 0 ack 67 ---A--- 0 2.3 0.5 224 204
- 110.002917 2 0 ack 67 ---A--- 0 2.3 0.5 224 204
+ 110.002917 0 1 tcp 67 ---A--- 0 0.6 1.5 224 205
- 110.002917 0 1 tcp 67 ---A--- 0 0.6 1.5 224 205
+ 110.002917 1 2 ack 67 ---A--- 0 1.4 2.6 224 206
- 110.002917 1 2 ack 67 ---A--- 0 1.4 2.6 224 206
+ 110.002917 2 3 tcp 89 ---A--- 0 2.5 3.2 230 207
- 110.002917 2 3 tcp 89 ---A--- 0 2.5 3.2 230 207
+ 110.002917 0 3 ack 89 ---A--- 0 0.1 3.3 230 208
- 110.002917 0 3 ack 89 ---A--- 0 0.1 3.3 230 208
+ 110.002917 1 3 ack 89 ---A--- 0 1.0 3.4 230 209
- 110.002917 1 3 ack 89 ---A--- 0 1.0 3.4 230 209
r 110.004275 2 0 ack 67 ---A--- 0 2.3 0.5 224 204
r 110.004275 0 1 tcp 67 ---A--- 0 0.6 1.5 224 205
r 110.004275 1 2 ack 67 ---A--- 0 1.4 2.6 224 206
r 110.004392 2 3 tcp 89 ---A--- 0 2.5 3.2 230 207
r 110.004392 0 3 ack 89 ---A--- 0 0.1 3.3 230 208
r 110.004392 1 3 ack 89 ---A--- 0 1.0 3.4 230 209
+ 110.1 3 0 tcp 40 ------- 0 3.3 0.1 148 210
- 110.1 3 0 tcp 40 ------- 0 3.3 0.1 148 210
+ 110.1 3 1 tcp 40 ------- 0 3.4 1.0 148 211
- 110.1 3 1 tcp 40 ------- 0 3.4 1.0 148 211
+ 110.1 0 2 tcp 40 ------- 0 0.5 2.3 297 212
- 110.1 0 2 tcp 40 ------- 0 0.5 2.3 297 212
+ 110.1 3 2 ack 40 ------- 0 3.2 2.5 148 213
- 110.1 3 2 ack 40 ------- 0 3.2 2.5 148 213
+ 110.1 2 1 tcp 40 ------- 0 2.6 1.4 297 214
- 110.1 2 1 tcp 40 ------- 0 2.6 1.4 297 214
+ 110.1 1 0 ack 40 ------- 0 1.5 0.6 297 215
- 110.1 1 0 ack 40 ------- 0 1.5 0.6 297 215
r 110.101213 3 0 tcp 40 ------- 0 3.3 0.1 148 210
r 110.101213 3 1 tcp 40 ------- 0 3.4 1.0 148 211
r 110.101213 0 2 tcp 40 ------- 0 0.5 2.3 297 212
r 110.101213 3 2 ack 40 ------- 0 3.2 2.5 148 213
r 110.101213 2 1 tcp 40 ------- 0 2.6 1.4 297 214
r 110.101213 1 0 ack 40 ------- 0 1.5 0.6 297 215
+ 125.999905 0 3 ack 59 ---A--- 0 0.1 3.3 279 216
- 125.999905 0 3 ack 59 ---A--- 0 0.1 3.3 279 216