+ 5.95614 3 1 tcp 40 ------- 0 3.1 1.0 0 0
- 5.95614 3 1 tcp 40 ------- 0 3.1 1.0 0 0
r 5.957353 3 1 tcp 40 ------- 0 3.1 1.0 0 0
+ 5.957353 1 3 ack 40 ------- 0 1.0 3.1 0 1
- 5.957353 1 3 ack 40 ------- 0 1.0 3.1 0 1
r 5.958566 1 3 ack 40 ------- 0 1.0 3.1 0 1
+ 5.958566 3 1 tcp 40 ------- 0 3.1 1.0 1 2
- 5.958566 3 1 tcp 40 ------- 0 3.1 1.0 1 2
+ 5.958566 3 1 tcp 40 ------- 0 3.1 1.0 1 3
+ 5.958566 3 1 tcp 85 ------- 0 3.1 1.0 1 4
- 5.95878 3 1 tcp 40 ------- 0 3.1 1.0 1 3
- 5.958993 3 1 tcp 85 ------- 0 3.1 1.0 1 4
r 5.95978 3 1 tcp 40 ------- 0 3.1 1.0 1 2
+ 5.95978 1 3 ack 40 ------- 0 1.0 3.1 1 5
- 5.95978 1 3 ack 40 ------- 0 1.0 3.1 1 5
r 5.959993 3 1 tcp 40 ------- 0 3.1 1.0 1 3
r 5.960446 3 1 tcp 85 ------- 0 3.1 1.0 1 4
r 5.960993 1 3 ack 40 ------- 0 1.0 3.1 1 5
+ 5.960993 3 1 tcp 40 ------- 0 3.1 1.0 46 6
- 5.960993 3 1 tcp 40 ------- 0 3.1 1.0 46 6
r 5.962206 3 1 tcp 40 ------- 0 3.1 1.0 46 6
+ 6.158566 3 1 tcp 85 ------- 0 3.1 1.0 1 7
- 6.158566 3 1 tcp 85 ------- 0 3.1 1.0 1 7
r 6.16002 3 1 tcp 85 ------- 0 3.1 1.0 1 7
+ 6.16002 1 3 ack 40 ------- 0 1.0 3.1 2 8
- 6.16002 1 3 ack 40 ------- 0 1.0 3.1 2 8
r 6.161233 1 3 ack 40 ------- 0 1.0 3.1 2 8
+ 6.161233 3 1 tcp 40 ------- 0 3.1 1.0 46 9
- 6.161233 3 1 tcp 40 ------- 0 3.1 1.0 46 9
r 6.162446 3 1 tcp 40 ------- 0 3.1 1.0 46 9
+ 6.162446 1 3 ack 40 ------- 0 1.0 3.1 2 10
- 6.162446 1 3 ack 40 ------- 0 1.0 3.1 2 10
r 6.16366 1 3 ack 40 ------- 0 1.0 3.1 2 10
+ 6.241802 2 1 tcp 40 ------- 0 2.1 1.1 0 11
- 6.241802 2 1 tcp 40 ------- 0 2.1 1.1 0 11
r 6.243015 2 1 tcp 40 ------- 0 2.1 1.1 0 11
+ 6.243015 1 2 ack 40 ------- 0 1.1 2.1 0 12
- 6.243015 1 2 ack 40 ------- 0 1.1 2.1 0 12
r 6.244229 1 2 ack 40 ------- 0 1.1 2.1 0 12
+ 6.244229 2 1 tcp 40 ------- 0 2.1 1.1 1 13
- 6.244229 2 1 tcp 40 ------- 0 2.1 1.1 1 13
+ 6.244229 2 1 tcp 40 ------- 0 2.1 1.1 1 14
+ 6.244229 2 1 tcp 85 ------- 0 2.1 1.1 1 15
- 6.244442 2 1 tcp 40 ------- 0 2.1 1.1 1 14
- 6.244655 2 1 tcp 85 ------- 0 2.1 1.1 1 15
r 6.245442 2 1 tcp 40 ------- 0 2.1 1.1 1 13
+ 6.245442 1 2 ack 40 ------- 0 1.1 2.1 1 16
- 6.245442 1 2 ack 40 ------- 0 1.1 2.1 1 16
r 6.245655 2 1 tcp 40 ------- 0 2.1 1.1 1 14
r 6.246109 2 1 tcp 85 ------- 0 2.1 1.1 1 15
r 6.246655 1 2 ack 40 ------- 0 1.1 2.1 1 16
+ 6.246655 2 1 tcp 40 ------- 0 2.1 1.1 46 17
- 6.246655 2 1 tcp 40 ------- 0 2.1 1.1 46 17
r 6.247869 2 1 tcp 40 ------- 0 2.1 1.1 46 17
+ 6.297713 1 3 tcp 40 ------- 0 1.3 3.0 0 18
- 6.297713 1 3 tcp 40 ------- 0 1.3 3.0 0 18
r 6.298927 1 3 tcp 40 ------- 0 1.3 3.0 0 18
+ 6.298927 3 1 ack 40 ------- 0 3.0 1.3 0 19
- 6.298927 3 1 ack 40 ------- 0 3.0 1.3 0 19
r 6.30014 3 1 ack 40 ------- 0 3.0 1.3 0 19
+ 6.30014 1 3 tcp 40 ------- 0 1.3 3.0 1 20
- 6.30014 1 3 tcp 40 ------- 0 1.3 3.0 1 20
+ 6.30014 1 3 tcp 40 ------- 0 1.3 3.0 1 21
+ 6.30014 1 3 tcp 85 ------- 0 1.3 3.0 1 22
- 6.300353 1 3 tcp 40 ------- 0 1.3 3.0 1 21
- 6.300567 1 3 tcp 85 ------- 0 1.3 3.0 1 22
r 6.301353 1 3 tcp 40 ------- 0 1.3 3.0 1 20
r 6.301567 1 3 tcp 40 ------- 0 1.3 3.0 1 21
r 6.30202 1 3 tcp 85 ------- 0 1.3 3.0 1 22
+ 6.30202 3 1 ack 85 ------- 0 3.0 1.3 1 23
- 6.30202 3 1 ack 85 ------- 0 3.0 1.3 1 23
r 6.303473 3 1 ack 85 ------- 0 3.0 1.3 1 23
+ 6.303473 1 3 tcp 59 ------- 0 1.3 3.0 46 24
- 6.303473 1 3 tcp 59 ------- 0 1.3 3.0 46 24
r 6.304788 1 3 tcp 59 ------- 0 1.3 3.0 46 24
+ 6.304788 3 1 ack 59 ------- 0 3.0 1.3 46 25
- 6.304788 3 1 ack 59 ------- 0 3.0 1.3 46 25
r 6.306103 3 1 ack 59 ------- 0 3.0 1.3 46 25
+ 6.306103 1 3 tcp 59 ------- 0 1.3 3.0 65 26
- 6.306103 1 3 tcp 59 ------- 0 1.3 3.0 65 26
r 6.307417 1 3 tcp 59 ------- 0 1.3 3.0 65 26
+ 6.307417 3 1 ack 59 ------- 0 3.0 1.3 65 27
- 6.307417 3 1 ack 59 ------- 0 3.0 1.3 65 27
r 6.308732 3 1 ack 59 ------- 0 3.0 1.3 65 27
+ 6.4 1 3 tcp 40 ------- 0 1.3 3.0 84 28
- 6.4 1 3 tcp 40 ------- 0 1.3 3.0 84 28
r 6.401213 1 3 tcp 40 ------- 0 1.3 3.0 84 28
+ 6.444229 2 1 tcp 85 ------- 0 2.1 1.1 1 29
- 6.444229 2 1 tcp 85 ------- 0 2.1 1.1 1 29
r 6.445682 2 1 tcp 85 ------- 0 2.1 1.1 1 29
+ 6.445682 1 2 ack 40 ------- 0 1.1 2.1 2 30
- 6.445682 1 2 ack 40 ------- 0 1.1 2.1 2 30
r 6.446895 1 2 ack 40 ------- 0 1.1 2.1 2 30
+ 6.446895 2 1 tcp 40 ------- 0 2.1 1.1 46 31
- 6.446895 2 1 tcp 40 ------- 0 2.1 1.1 46 31
r 6.448109 2 1 tcp 40 ------- 0 2.1 1.1 46 31
+ 6.448109 1 2 ack 40 ------- 0 1.1 2.1 2 32
- 6.448109 1 2 ack 40 ------- 0 1.1 2.1 2 32
r 6.449322 1 2 ack 40 ------- 0 1.1 2.1 2 32
+ 6.655933 1 0 tcp 40 ------- 0 1.4 0.0 0 33
- 6.655933 1 0 tcp 40 ------- 0 1.4 0.0 0 33
r 6.657146 1 0 tcp 40 ------- 0 1.4 0.0 0 33
+ 6.657146 0 1 ack 40 ------- 0 0.0 1.4 0 34
- 6.657146 0 1 ack 40 ------- 0 0.0 1.4 0 34
r 6.65836 0 1 ack 40 ------- 0 0.0 1.4 0 34
+ 6.65836 1 0 tcp 40 ------- 0 1.4 0.0 1 35
- 6.65836 1 0 tcp 40 ------- 0 1.4 0.0 1 35
+ 6.65836 1 0 tcp 40 ------- 0 1.4 0.0 1 36
+ 6.65836 1 0 tcp 85 ------- 0 1.4 0.0 1 37
- 6.658573 1 0 tcp 40 ------- 0 1.4 0.0 1 36
- 6.658786 1 0 tcp 85 ------- 0 1.4 0.0 1 37
r 6.659573 1 0 tcp 40 ------- 0 1.4 0.0 1 35
+ 6.659573 0 1 ack 40 ------- 0 0.0 1.4 1 38
- 6.659573 0 1 ack 40 ------- 0 0.0 1.4 1 38
r 6.659786 1 0 tcp 40 ------- 0 1.4 0.0 1 36
r 6.66024 1 0 tcp 85 ------- 0 1.4 0.0 1 37
r 6.660786 0 1 ack 40 ------- 0 0.0 1.4 1 38
+ 6.660786 1 0 tcp 40 ------- 0 1.4 0.0 46 39
- 6.660786 1 0 tcp 40 ------- 0 1.4 0.0 46 39
r 6.662 1 0 tcp 40 ------- 0 1.4 0.0 46 39
+ 6.85836 1 0 tcp 85 ------- 0 1.4 0.0 1 40
- 6.85836 1 0 tcp 85 ------- 0 1.4 0.0 1 40
r 6.859813 1 0 tcp 85 ------- 0 1.4 0.0 1 40
+ 6.859813 0 1 ack 40 ------- 0 0.0 1.4 2 41
- 6.859813 0 1 ack 40 ------- 0 0.0 1.4 2 41
r 6.861026 0 1 ack 40 ------- 0 0.0 1.4 2 41
+ 6.861026 1 0 tcp 40 ------- 0 1.4 0.0 46 42
- 6.861026 1 0 tcp 40 ------- 0 1.4 0.0 46 42
r 6.86224 1 0 tcp 40 ------- 0 1.4 0.0 46 42
+ 6.86224 0 1 ack 40 ------- 0 0.0 1.4 2 43
- 6.86224 0 1 ack 40 ------- 0 0.0 1.4 2 43
r 6.863453 0 1 ack 40 ------- 0 0.0 1.4 2 43
+ 7.693303 0 1 tcp 40 ------- 0 0.2 1.2 0 44
- 7.693303 0 1 tcp 40 ------- 0 0.2 1.2 0 44
r 7.694517 0 1 tcp 40 ------- 0 0.2 1.2 0 44
+ 7.694517 1 0 ack 40 ------- 0 1.2 0.2 0 45
- 7.694517 1 0 ack 40 ------- 0 1.2 0.2 0 45
r 7.69573 1 0 ack 40 ------- 0 1.2 0.2 0 45
+ 7.69573 0 1 tcp 40 ------- 0 0.2 1.2 1 46
- 7.69573 0 1 tcp 40 ------- 0 0.2 1.2 1 46
+ 7.69573 0 1 tcp 40 ------- 0 0.2 1.2 1 47
+ 7.69573 0 1 tcp 85 ------- 0 0.2 1.2 1 48
- 7.695943 0 1 tcp 40 ------- 0 0.2 1.2 1 47
- 7.696157 0 1 tcp 85 ------- 0 0.2 1.2 1 48
r 7.696943 0 1 tcp 40 ------- 0 0.2 1.2 1 46
r 7.697157 0 1 tcp 40 ------- 0 0.2 1.2 1 47
r 7.69761 0 1 tcp 85 ------- 0 0.2 1.2 1 48
+ 7.69761 1 0 ack 85 ------- 0 1.2 0.2 1 49
- 7.69761 1 0 ack 85 ------- 0 1.2 0.2 1 49
r 7.699063 1 0 ack 85 ------- 0 1.2 0.2 1 49
+ 7.699063 0 1 tcp 59 ------- 0 0.2 1.2 46 50
- 7.699063 0 1 tcp 59 ------- 0 0.2 1.2 46 50
r 7.700378 0 1 tcp 59 ------- 0 0.2 1.2 46 50
+ 7.700378 1 0 ack 59 ------- 0 1.2 0.2 46 51
- 7.700378 1 0 ack 59 ------- 0 1.2 0.2 46 51
r 7.701693 1 0 ack 59 ------- 0 1.2 0.2 46 51
+ 7.701693 0 1 tcp 59 ------- 0 0.2 1.2 65 52
- 7.701693 0 1 tcp 59 ------- 0 0.2 1.2 65 52
r 7.703007 0 1 tcp 59 ------- 0 0.2 1.2 65 52
+ 7.703007 1 0 ack 59 ------- 0 1.2 0.2 65 53
- 7.703007 1 0 ack 59 ------- 0 1.2 0.2 65 53
r 7.704322 1 0 ack 59 ------- 0 1.2 0.2 65 53
+ 7.8 0 1 tcp 40 ------- 0 0.2 1.2 84 54
- 7.8 0 1 tcp 40 ------- 0 0.2 1.2 84 54
r 7.801213 0 1 tcp 40 ------- 0 0.2 1.2 84 54
+ 8.001663 4 1 tcp 40 ------- 0 4.1 1.5 0 55
- 8.001663 4 1 tcp 40 ------- 0 4.1 1.5 0 55
r 8.002876 4 1 tcp 40 ------- 0 4.1 1.5 0 55
+ 8.002876 1 4 ack 40 ------- 0 1.5 4.1 0 56
- 8.002876 1 4 ack 40 ------- 0 1.5 4.1 0 56
r 8.004089 1 4 ack 40 ------- 0 1.5 4.1 0 56
+ 8.004089 4 1 tcp 40 ------- 0 4.1 1.5 1 57
- 8.004089 4 1 tcp 40 ------- 0 4.1 1.5 1 57
+ 8.004089 4 1 tcp 40 ------- 0 4.1 1.5 1 58
+ 8.004089 4 1 tcp 85 ------- 0 4.1 1.5 1 59
- 8.004303 4 1 tcp 40 ------- 0 4.1 1.5 1 58
- 8.004516 4 1 tcp 85 ------- 0 4.1 1.5 1 59
r 8.005303 4 1 tcp 40 ------- 0 4.1 1.5 1 57
+ 8.005303 1 4 ack 40 ------- 0 1.5 4.1 1 60
- 8.005303 1 4 ack 40 ------- 0 1.5 4.1 1 60
r 8.005516 4 1 tcp 40 ------- 0 4.1 1.5 1 58
r 8.005969 4 1 tcp 85 ------- 0 4.1 1.5 1 59
r 8.006516 1 4 ack 40 ------- 0 1.5 4.1 1 60
+ 8.006516 4 1 tcp 40 ------- 0 4.1 1.5 46 61
- 8.006516 4 1 tcp 40 ------- 0 4.1 1.5 46 61
r 8.007729 4 1 tcp 40 ------- 0 4.1 1.5 46 61
+ 8.096111 1 2 tcp 40 ------- 0 1.7 2.0 0 62
- 8.096111 1 2 tcp 40 ------- 0 1.7 2.0 0 62
r 8.097325 1 2 tcp 40 ------- 0 1.7 2.0 0 62
+ 8.097325 2 1 ack 40 ------- 0 2.0 1.7 0 63
- 8.097325 2 1 ack 40 ------- 0 2.0 1.7 0 63
r 8.098538 2 1 ack 40 ------- 0 2.0 1.7 0 63
+ 8.098538 1 2 tcp 40 ------- 0 1.7 2.0 1 64
- 8.098538 1 2 tcp 40 ------- 0 1.7 2.0 1 64
+ 8.098538 1 2 tcp 40 ------- 0 1.7 2.0 1 65
+ 8.098538 1 2 tcp 85 ------- 0 1.7 2.0 1 66
- 8.098751 1 2 tcp 40 ------- 0 1.7 2.0 1 65
- 8.098965 1 2 tcp 85 ------- 0 1.7 2.0 1 66
r 8.099751 1 2 tcp 40 ------- 0 1.7 2.0 1 64
r 8.099965 1 2 tcp 40 ------- 0 1.7 2.0 1 65
r 8.100418 1 2 tcp 85 ------- 0 1.7 2.0 1 66
+ 8.100418 2 1 ack 85 ------- 0 2.0 1.7 1 67
- 8.100418 2 1 ack 85 ------- 0 2.0 1.7 1 67
r 8.101871 2 1 ack 85 ------- 0 2.0 1.7 1 67
+ 8.101871 1 2 tcp 59 ------- 0 1.7 2.0 46 68
- 8.101871 1 2 tcp 59 ------- 0 1.7 2.0 46 68
r 8.103186 1 2 tcp 59 ------- 0 1.7 2.0 46 68
+ 8.103186 2 1 ack 59 ------- 0 2.0 1.7 46 69
- 8.103186 2 1 ack 59 ------- 0 2.0 1.7 46 69
r 8.104501 2 1 ack 59 ------- 0 2.0 1.7 46 69
+ 8.104501 1 2 tcp 59 ------- 0 1.7 2.0 65 70
- 8.104501 1 2 tcp 59 ------- 0 1.7 2.0 65 70
r 8.105815 1 2 tcp 59 ------- 0 1.7 2.0 65 70
+ 8.105815 2 1 ack 59 ------- 0 2.0 1.7 65 71
- 8.105815 2 1 ack 59 ------- 0 2.0 1.7 65 71
r 8.10713 2 1 ack 59 ------- 0 2.0 1.7 65 71
+ 8.2 1 2 tcp 40 ------- 0 1.7 2.0 84 72
- 8.2 1 2 tcp 40 ------- 0 1.7 2.0 84 72
r 8.201213 1 2 tcp 40 ------- 0 1.7 2.0 84 72
+ 8.204089 4 1 tcp 85 ------- 0 4.1 1.5 1 73
- 8.204089 4 1 tcp 85 ------- 0 4.1 1.5 1 73
r 8.205543 4 1 tcp 85 ------- 0 4.1 1.5 1 73
+ 8.205543 1 4 ack 40 ------- 0 1.5 4.1 2 74
- 8.205543 1 4 ack 40 ------- 0 1.5 4.1 2 74
r 8.206756 1 4 ack 40 ------- 0 1.5 4.1 2 74
+ 8.206756 4 1 tcp 40 ------- 0 4.1 1.5 46 75
- 8.206756 4 1 tcp 40 ------- 0 4.1 1.5 46 75
r 8.207969 4 1 tcp 40 ------- 0 4.1 1.5 46 75
+ 8.207969 1 4 ack 40 ------- 0 1.5 4.1 2 76
- 8.207969 1 4 ack 40 ------- 0 1.5 4.1 2 76
r 8.209183 1 4 ack 40 ------- 0 1.5 4.1 2 76
+ 8.964174 1 4 tcp 40 ------- 0 1.8 4.0 0 77
- 8.964174 1 4 tcp 40 ------- 0 1.8 4.0 0 77
r 8.965387 1 4 tcp 40 ------- 0 1.8 4.0 0 77
+ 8.965387 4 1 ack 40 ------- 0 4.0 1.8 0 78
- 8.965387 4 1 ack 40 ------- 0 4.0 1.8 0 78
r 8.9666 4 1 ack 40 ------- 0 4.0 1.8 0 78
+ 8.9666 1 4 tcp 40 ------- 0 1.8 4.0 1 79
- 8.9666 1 4 tcp 40 ------- 0 1.8 4.0 1 79
+ 8.9666 1 4 tcp 40 ------- 0 1.8 4.0 1 80
+ 8.9666 1 4 tcp 85 ------- 0 1.8 4.0 1 81
- 8.966814 1 4 tcp 40 ------- 0 1.8 4.0 1 80
- 8.967027 1 4 tcp 85 ------- 0 1.8 4.0 1 81
r 8.967814 1 4 tcp 40 ------- 0 1.8 4.0 1 79
r 8.968027 1 4 tcp 40 ------- 0 1.8 4.0 1 80
r 8.96848 1 4 tcp 85 ------- 0 1.8 4.0 1 81
+ 8.96848 4 1 ack 85 ------- 0 4.0 1.8 1 82
- 8.96848 4 1 ack 85 ------- 0 4.0 1.8 1 82
r 8.969934 4 1 ack 85 ------- 0 4.0 1.8 1 82
+ 8.969934 1 4 tcp 59 ------- 0 1.8 4.0 46 83
- 8.969934 1 4 tcp 59 ------- 0 1.8 4.0 46 83
r 8.971248 1 4 tcp 59 ------- 0 1.8 4.0 46 83
+ 8.971248 4 1 ack 59 ------- 0 4.0 1.8 46 84
- 8.971248 4 1 ack 59 ------- 0 4.0 1.8 46 84
r 8.972563 4 1 ack 59 ------- 0 4.0 1.8 46 84
+ 8.972563 1 4 tcp 59 ------- 0 1.8 4.0 65 85
- 8.972563 1 4 tcp 59 ------- 0 1.8 4.0 65 85
r 8.973878 1 4 tcp 59 ------- 0 1.8 4.0 65 85
+ 8.973878 4 1 ack 59 ------- 0 4.0 1.8 65 86
- 8.973878 4 1 ack 59 ------- 0 4.0 1.8 65 86
r 8.975192 4 1 ack 59 ------- 0 4.0 1.8 65 86
+ 9 1 4 tcp 40 ------- 0 1.8 4.0 84 87
- 9 1 4 tcp 40 ------- 0 1.8 4.0 84 87
r 9.001213 1 4 tcp 40 ------- 0 1.8 4.0 84 87
+ 20 2 1 ack 91 ---A--- 0 2.0 1.7 84 88
- 20 2 1 ack 91 ---A--- 0 2.0 1.7 84 88
r 20.001485 2 1 ack 91 ---A--- 0 2.0 1.7 84 88
+ 20.001485 1 0 ack 93 ---A--- 0 1.2 0.2 84 89
- 20.001485 1 0 ack 93 ---A--- 0 1.2 0.2 84 89
+ 20.001485 1 3 tcp 93 ---A--- 0 1.3 3.0 84 90
- 20.001485 1 3 tcp 93 ---A--- 0 1.3 3.0 84 90
+ 20.001485 1 4 tcp 93 ---A--- 0 1.8 4.0 84 91
- 20.001485 1 4 tcp 93 ---A--- 0 1.8 4.0 84 91
r 20.002981 1 0 ack 93 ---A--- 0 1.2 0.2 84 89
r 20.002981 1 3 tcp 93 ---A--- 0 1.3 3.0 84 90
r 20.002981 1 4 tcp 93 ---A--- 0 1.8 4.0 84 91
+ 20.1 3 1 ack 40 ------- 0 3.0 1.3 84 92
- 20.1 3 1 ack 40 ------- 0 3.0 1.3 84 92
+ 20.1 0 1 tcp 40 ------- 0 0.2 1.2 84 93
- 20.1 0 1 tcp 40 ------- 0 0.2 1.2 84 93
+ 20.1 1 2 tcp 40 ------- 0 1.7 2.0 84 94
- 20.1 1 2 tcp 40 ------- 0 1.7 2.0 84 94
+ 20.1 4 1 ack 40 ------- 0 4.0 1.8 84 95
- 20.1 4 1 ack 40 ------- 0 4.0 1.8 84 95
r 20.101213 3 1 ack 40 ------- 0 3.0 1.3 84 92
r 20.101213 0 1 tcp 40 ------- 0 0.2 1.2 84 93
r 20.101213 1 2 tcp 40 ------- 0 1.7 2.0 84 94
r 20.101213 4 1 ack 40 ------- 0 4.0 1.8 84 95
+ 21 3 1 ack 89 ---A--- 0 3.0 1.3 84 96
- 21 3 1 ack 89 ---A--- 0 3.0 1.3 84 96
r 21.001475 3 1 ack 89 ---A--- 0 3.0 1.3 84 96
+ 21.001475 1 2 tcp 91 ---A--- 0 1.7 2.0 84 97
- 21.001475 1 2 tcp 91 ---A--- 0 1.7 2.0 84 97
+ 21.001475 1 3 tcp 67 ---A--- 0 1.3 3.0 137 98
- 21.001475 1 3 tcp 67 ---A--- 0 1.3 3.0 137 98
r 21.002832 1 3 tcp 67 ---A--- 0 1.3 3.0 137 98
r 21.00296 1 2 tcp 91 ---A--- 0 1.7 2.0 84 97
+ 21.1 3 1 ack 40 ------- 0 3.0 1.3 133 99
- 21.1 3 1 ack 40 ------- 0 3.0 1.3 133 99
+ 21.1 2 1 ack 40 ------- 0 2.0 1.7 135 100
- 21.1 2 1 ack 40 ------- 0 2.0 1.7 135 100
r 21.101213 3 1 ack 40 ------- 0 3.0 1.3 133 99
r 21.101213 2 1 ack 40 ------- 0 2.0 1.7 135 100
+ 50.001485 1 4 tcp 91 ---A--- 0 1.8 4.0 137 101
- 50.001485 1 4 tcp 91 ---A--- 0 1.8 4.0 137 101
+ 50.001485 1 0 ack 91 ---A--- 0 1.2 0.2 137 102
- 50.001485 1 0 ack 91 ---A--- 0 1.2 0.2 137 102
r 50.002971 1 4 tcp 91 ---A--- 0 1.8 4.0 137 101
r 50.002971 1 0 ack 91 ---A--- 0 1.2 0.2 137 102
+ 50.1 0 1 tcp 40 ------- 0 0.2 1.2 84 103
- 50.1 0 1 tcp 40 ------- 0 0.2 1.2 84 103
+ 50.1 4 1 ack 40 ------- 0 4.0 1.8 84 104
- 50.1 4 1 ack 40 ------- 0 4.0 1.8 84 104
r 50.101213 0 1 tcp 40 ------- 0 0.2 1.2 84 103
r 50.101213 4 1 ack 40 ------- 0 4.0 1.8 84 104
+ 66.30202 3 1 ack 59 ---A--- 0 3.0 1.3 133 105
- 66.30202 3 1 ack 59 ---A--- 0 3.0 1.3 133 105
r 66.303335 3 1 ack 59 ---A--- 0 3.0 1.3 133 105
+ 66.303473 1 3 tcp 59 ---A--- 0 1.3 3.0 164 106
- 66.303473 1 3 tcp 59 ---A--- 0 1.3 3.0 164 106
r 66.304788 1 3 tcp 59 ---A--- 0 1.3 3.0 164 106
+ 66.4 3 1 ack 40 ------- 0 3.0 1.3 152 107
- 66.4 3 1 ack 40 ------- 0 3.0 1.3 152 107
r 66.401213 3 1 ack 40 ------- 0 3.0 1.3 152 107
+ 67.69761 1 0 ack 59 ---A--- 0 1.2 0.2 188 108
- 67.69761 1 0 ack 59 ---A--- 0 1.2 0.2 188 108
r 67.698925 1 0 ack 59 ---A--- 0 1.2 0.2 188 108
+ 67.699063 0 1 tcp 59 ---A--- 0 0.2 1.2 84 109
- 67.699063 0 1 tcp 59 ---A--- 0 0.2 1.2 84 109
r 67.700378 0 1 tcp 59 ---A--- 0 0.2 1.2 84 109
+ 67.8 1 0 ack 40 ------- 0 1.2 0.2 207 110
- 67.8 1 0 ack 40 ------- 0 1.2 0.2 207 110
r 67.801213 1 0 ack 40 ------- 0 1.2 0.2 207 110
+ 68.100418 2 1 ack 59 ---A--- 0 2.0 1.7 135 111
- 68.100418 2 1 ack 59 ---A--- 0 2.0 1.7 135 111
r 68.101733 2 1 ack 59 ---A--- 0 2.0 1.7 135 111
+ 68.101871 1 2 tcp 59 ---A--- 0 1.7 2.0 135 112
- 68.101871 1 2 tcp 59 ---A--- 0 1.7 2.0 135 112
r 68.103186 1 2 tcp 59 ---A--- 0 1.7 2.0 135 112
+ 68.2 2 1 ack 40 ------- 0 2.0 1.7 154 113
- 68.2 2 1 ack 40 ------- 0 2.0 1.7 154 113
r 68.201213 2 1 ack 40 ------- 0 2.0 1.7 154 113
+ 68.96848 4 1 ack 59 ---A--- 0 4.0 1.8 84 114
- 68.96848 4 1 ack 59 ---A--- 0 4.0 1.8 84 114
r 68.969795 4 1 ack 59 ---A--- 0 4.0 1.8 84 114
+ 68.969934 1 4 tcp 59 ---A--- 0 1.8 4.0 188 115
- 68.969934 1 4 tcp 59 ---A--- 0 1.8 4.0 188 115
r 68.971248 1 4 tcp 59 ---A--- 0 1.8 4.0 188 115
+ 69 4 1 ack 40 ------- 0 4.0 1.8 103 116
- 69 4 1 ack 40 ------- 0 4.0 1.8 103 116
r 69.001213 4 1 ack 40 ------- 0 4.0 1.8 103 116
