+ 5.529874 4 3 tcp 40 ------- 0 4.1 3.0 0 0
- 5.529874 4 3 tcp 40 ------- 0 4.1 3.0 0 0
r 5.531087 4 3 tcp 40 ------- 0 4.1 3.0 0 0
+ 5.531087 3 4 ack 40 ------- 0 3.0 4.1 0 1
- 5.531087 3 4 ack 40 ------- 0 3.0 4.1 0 1
r 5.532301 3 4 ack 40 ------- 0 3.0 4.1 0 1
+ 5.532301 4 3 tcp 40 ------- 0 4.1 3.0 1 2
- 5.532301 4 3 tcp 40 ------- 0 4.1 3.0 1 2
+ 5.532301 4 3 tcp 40 ------- 0 4.1 3.0 1 3
+ 5.532301 4 3 tcp 85 ------- 0 4.1 3.0 1 4
- 5.532514 4 3 tcp 40 ------- 0 4.1 3.0 1 3
- 5.532727 4 3 tcp 85 ------- 0 4.1 3.0 1 4
r 5.533514 4 3 tcp 40 ------- 0 4.1 3.0 1 2
+ 5.533514 3 4 ack 40 ------- 0 3.0 4.1 1 5
- 5.533514 3 4 ack 40 ------- 0 3.0 4.1 1 5
r 5.533727 4 3 tcp 40 ------- 0 4.1 3.0 1 3
r 5.534181 4 3 tcp 85 ------- 0 4.1 3.0 1 4
r 5.534727 3 4 ack 40 ------- 0 3.0 4.1 1 5
+ 5.534727 4 3 tcp 40 ------- 0 4.1 3.0 46 6
- 5.534727 4 3 tcp 40 ------- 0 4.1 3.0 46 6
r 5.535941 4 3 tcp 40 ------- 0 4.1 3.0 46 6
+ 5.591437 1 4 tcp 40 ------- 0 1.1 4.0 0 7
- 5.591437 1 4 tcp 40 ------- 0 1.1 4.0 0 7
r 5.592651 1 4 tcp 40 ------- 0 1.1 4.0 0 7
+ 5.592651 4 1 ack 40 ------- 0 4.0 1.1 0 8
- 5.592651 4 1 ack 40 ------- 0 4.0 1.1 0 8
r 5.593864 4 1 ack 40 ------- 0 4.0 1.1 0 8
+ 5.593864 1 4 tcp 40 ------- 0 1.1 4.0 1 9
- 5.593864 1 4 tcp 40 ------- 0 1.1 4.0 1 9
+ 5.593864 1 4 tcp 40 ------- 0 1.1 4.0 1 10
+ 5.593864 1 4 tcp 85 ------- 0 1.1 4.0 1 11
- 5.594077 1 4 tcp 40 ------- 0 1.1 4.0 1 10
- 5.594291 1 4 tcp 85 ------- 0 1.1 4.0 1 11
r 5.595077 1 4 tcp 40 ------- 0 1.1 4.0 1 9
+ 5.595077 4 1 ack 40 ------- 0 4.0 1.1 1 12
- 5.595077 4 1 ack 40 ------- 0 4.0 1.1 1 12
r 5.595291 1 4 tcp 40 ------- 0 1.1 4.0 1 10
r 5.595744 1 4 tcp 85 ------- 0 1.1 4.0 1 11
r 5.596291 4 1 ack 40 ------- 0 4.0 1.1 1 12
+ 5.596291 1 4 tcp 40 ------- 0 1.1 4.0 46 13
- 5.596291 1 4 tcp 40 ------- 0 1.1 4.0 46 13
r 5.597504 1 4 tcp 40 ------- 0 1.1 4.0 46 13
+ 5.732301 4 3 tcp 85 ------- 0 4.1 3.0 1 14
- 5.732301 4 3 tcp 85 ------- 0 4.1 3.0 1 14
+ 5.732604 5 1 tcp 40 ------- 0 5.1 1.0 0 15
- 5.732604 5 1 tcp 40 ------- 0 5.1 1.0 0 15
r 5.733754 4 3 tcp 85 ------- 0 4.1 3.0 1 14
+ 5.733754 3 4 ack 40 ------- 0 3.0 4.1 2 16
- 5.733754 3 4 ack 40 ------- 0 3.0 4.1 2 16
r 5.733817 5 1 tcp 40 ------- 0 5.1 1.0 0 15
+ 5.733817 1 5 ack 40 ------- 0 1.0 5.1 0 17
- 5.733817 1 5 ack 40 ------- 0 1.0 5.1 0 17
r 5.734967 3 4 ack 40 ------- 0 3.0 4.1 2 16
+ 5.734967 4 3 tcp 40 ------- 0 4.1 3.0 46 18
- 5.734967 4 3 tcp 40 ------- 0 4.1 3.0 46 18
r 5.73503 1 5 ack 40 ------- 0 1.0 5.1 0 17
+ 5.73503 5 1 tcp 40 ------- 0 5.1 1.0 1 19
- 5.73503 5 1 tcp 40 ------- 0 5.1 1.0 1 19
+ 5.73503 5 1 tcp 40 ------- 0 5.1 1.0 1 20
+ 5.73503 5 1 tcp 85 ------- 0 5.1 1.0 1 21
- 5.735244 5 1 tcp 40 ------- 0 5.1 1.0 1 20
- 5.735457 5 1 tcp 85 ------- 0 5.1 1.0 1 21
r 5.736181 4 3 tcp 40 ------- 0 4.1 3.0 46 18
+ 5.736181 3 4 ack 40 ------- 0 3.0 4.1 2 22
- 5.736181 3 4 ack 40 ------- 0 3.0 4.1 2 22
r 5.736244 5 1 tcp 40 ------- 0 5.1 1.0 1 19
+ 5.736244 1 5 ack 40 ------- 0 1.0 5.1 1 23
- 5.736244 1 5 ack 40 ------- 0 1.0 5.1 1 23
r 5.736457 5 1 tcp 40 ------- 0 5.1 1.0 1 20
r 5.73691 5 1 tcp 85 ------- 0 5.1 1.0 1 21
r 5.737394 3 4 ack 40 ------- 0 3.0 4.1 2 22
r 5.737457 1 5 ack 40 ------- 0 1.0 5.1 1 23
+ 5.737457 5 1 tcp 40 ------- 0 5.1 1.0 46 24
- 5.737457 5 1 tcp 40 ------- 0 5.1 1.0 46 24
r 5.73867 5 1 tcp 40 ------- 0 5.1 1.0 46 24
+ 5.793864 1 4 tcp 85 ------- 0 1.1 4.0 1 25
- 5.793864 1 4 tcp 85 ------- 0 1.1 4.0 1 25
r 5.795317 1 4 tcp 85 ------- 0 1.1 4.0 1 25
+ 5.795317 4 1 ack 40 ------- 0 4.0 1.1 2 26
- 5.795317 4 1 ack 40 ------- 0 4.0 1.1 2 26
r 5.796531 4 1 ack 40 ------- 0 4.0 1.1 2 26
+ 5.796531 1 4 tcp 40 ------- 0 1.1 4.0 46 27
- 5.796531 1 4 tcp 40 ------- 0 1.1 4.0 46 27
r 5.797744 1 4 tcp 40 ------- 0 1.1 4.0 46 27
+ 5.797744 4 1 ack 40 ------- 0 4.0 1.1 2 28
- 5.797744 4 1 ack 40 ------- 0 4.0 1.1 2 28
r 5.798957 4 1 ack 40 ------- 0 4.0 1.1 2 28
+ 5.93503 5 1 tcp 85 ------- 0 5.1 1.0 1 29
- 5.93503 5 1 tcp 85 ------- 0 5.1 1.0 1 29
r 5.936484 5 1 tcp 85 ------- 0 5.1 1.0 1 29
+ 5.936484 1 5 ack 40 ------- 0 1.0 5.1 2 30
- 5.936484 1 5 ack 40 ------- 0 1.0 5.1 2 30
r 5.937697 1 5 ack 40 ------- 0 1.0 5.1 2 30
+ 5.937697 5 1 tcp 40 ------- 0 5.1 1.0 46 31
- 5.937697 5 1 tcp 40 ------- 0 5.1 1.0 46 31
r 5.93891 5 1 tcp 40 ------- 0 5.1 1.0 46 31
+ 5.93891 1 5 ack 40 ------- 0 1.0 5.1 2 32
- 5.93891 1 5 ack 40 ------- 0 1.0 5.1 2 32
r 5.940124 1 5 ack 40 ------- 0 1.0 5.1 2 32
+ 6.001306 1 0 tcp 40 ------- 0 1.3 0.0 0 33
- 6.001306 1 0 tcp 40 ------- 0 1.3 0.0 0 33
r 6.00252 1 0 tcp 40 ------- 0 1.3 0.0 0 33
+ 6.00252 0 1 ack 40 ------- 0 0.0 1.3 0 34
- 6.00252 0 1 ack 40 ------- 0 0.0 1.3 0 34
r 6.003733 0 1 ack 40 ------- 0 0.0 1.3 0 34
+ 6.003733 1 0 tcp 40 ------- 0 1.3 0.0 1 35
- 6.003733 1 0 tcp 40 ------- 0 1.3 0.0 1 35
+ 6.003733 1 0 tcp 40 ------- 0 1.3 0.0 1 36
+ 6.003733 1 0 tcp 85 ------- 0 1.3 0.0 1 37
- 6.003946 1 0 tcp 40 ------- 0 1.3 0.0 1 36
- 6.00416 1 0 tcp 85 ------- 0 1.3 0.0 1 37
r 6.004946 1 0 tcp 40 ------- 0 1.3 0.0 1 35
+ 6.004946 0 1 ack 40 ------- 0 0.0 1.3 1 38
- 6.004946 0 1 ack 40 ------- 0 0.0 1.3 1 38
r 6.00516 1 0 tcp 40 ------- 0 1.3 0.0 1 36
r 6.005613 1 0 tcp 85 ------- 0 1.3 0.0 1 37
r 6.00616 0 1 ack 40 ------- 0 0.0 1.3 1 38
+ 6.00616 1 0 tcp 40 ------- 0 1.3 0.0 46 39
- 6.00616 1 0 tcp 40 ------- 0 1.3 0.0 46 39
r 6.007373 1 0 tcp 40 ------- 0 1.3 0.0 46 39
+ 6.053671 4 1 tcp 40 ------- 0 4.3 1.2 0 40
- 6.053671 4 1 tcp 40 ------- 0 4.3 1.2 0 40
r 6.054885 4 1 tcp 40 ------- 0 4.3 1.2 0 40
+ 6.054885 1 4 ack 40 ------- 0 1.2 4.3 0 41
- 6.054885 1 4 ack 40 ------- 0 1.2 4.3 0 41
r 6.056098 1 4 ack 40 ------- 0 1.2 4.3 0 41
+ 6.056098 4 1 tcp 40 ------- 0 4.3 1.2 1 42
- 6.056098 4 1 tcp 40 ------- 0 4.3 1.2 1 42
+ 6.056098 4 1 tcp 40 ------- 0 4.3 1.2 1 43
+ 6.056098 4 1 tcp 85 ------- 0 4.3 1.2 1 44
- 6.056311 4 1 tcp 40 ------- 0 4.3 1.2 1 43
- 6.056525 4 1 tcp 85 ------- 0 4.3 1.2 1 44
r 6.057311 4 1 tcp 40 ------- 0 4.3 1.2 1 42
r 6.057525 4 1 tcp 40 ------- 0 4.3 1.2 1 43
r 6.057978 4 1 tcp 85 ------- 0 4.3 1.2 1 44
+ 6.057978 1 4 ack 85 ------- 0 1.2 4.3 1 45
- 6.057978 1 4 ack 85 ------- 0 1.2 4.3 1 45
r 6.059431 1 4 ack 85 ------- 0 1.2 4.3 1 45
+ 6.059431 4 1 tcp 59 ------- 0 4.3 1.2 46 46
- 6.059431 4 1 tcp 59 ------- 0 4.3 1.2 46 46
r 6.060746 4 1 tcp 59 ------- 0 4.3 1.2 46 46
+ 6.060746 1 4 ack 59 ------- 0 1.2 4.3 46 47
- 6.060746 1 4 ack 59 ------- 0 1.2 4.3 46 47
r 6.062061 1 4 ack 59 ------- 0 1.2 4.3 46 47
+ 6.062061 4 1 tcp 59 ------- 0 4.3 1.2 65 48
- 6.062061 4 1 tcp 59 ------- 0 4.3 1.2 65 48
r 6.063375 4 1 tcp 59 ------- 0 4.3 1.2 65 48
+ 6.063375 1 4 ack 59 ------- 0 1.2 4.3 65 49
- 6.063375 1 4 ack 59 ------- 0 1.2 4.3 65 49
r 6.06469 1 4 ack 59 ------- 0 1.2 4.3 65 49
+ 6.1 4 1 tcp 40 ------- 0 4.3 1.2 84 50
- 6.1 4 1 tcp 40 ------- 0 4.3 1.2 84 50
r 6.101213 4 1 tcp 40 ------- 0 4.3 1.2 84 50
+ 6.203733 1 0 tcp 85 ------- 0 1.3 0.0 1 51
- 6.203733 1 0 tcp 85 ------- 0 1.3 0.0 1 51
r 6.205186 1 0 tcp 85 ------- 0 1.3 0.0 1 51
+ 6.205186 0 1 ack 40 ------- 0 0.0 1.3 2 52
- 6.205186 0 1 ack 40 ------- 0 0.0 1.3 2 52
r 6.2064 0 1 ack 40 ------- 0 0.0 1.3 2 52
+ 6.2064 1 0 tcp 40 ------- 0 1.3 0.0 46 53
- 6.2064 1 0 tcp 40 ------- 0 1.3 0.0 46 53
r 6.207613 1 0 tcp 40 ------- 0 1.3 0.0 46 53
+ 6.207613 0 1 ack 40 ------- 0 0.0 1.3 2 54
- 6.207613 0 1 ack 40 ------- 0 0.0 1.3 2 54
r 6.208826 0 1 ack 40 ------- 0 0.0 1.3 2 54
+ 6.221802 4 0 tcp 40 ------- 0 4.4 0.1 0 55
- 6.221802 4 0 tcp 40 ------- 0 4.4 0.1 0 55
r 6.223015 4 0 tcp 40 ------- 0 4.4 0.1 0 55
+ 6.223015 0 4 ack 40 ------- 0 0.1 4.4 0 56
- 6.223015 0 4 ack 40 ------- 0 0.1 4.4 0 56
r 6.224229 0 4 ack 40 ------- 0 0.1 4.4 0 56
+ 6.224229 4 0 tcp 40 ------- 0 4.4 0.1 1 57
- 6.224229 4 0 tcp 40 ------- 0 4.4 0.1 1 57
+ 6.224229 4 0 tcp 40 ------- 0 4.4 0.1 1 58
+ 6.224229 4 0 tcp 85 ------- 0 4.4 0.1 1 59
- 6.224442 4 0 tcp 40 ------- 0 4.4 0.1 1 58
- 6.224655 4 0 tcp 85 ------- 0 4.4 0.1 1 59
r 6.225442 4 0 tcp 40 ------- 0 4.4 0.1 1 57
+ 6.225442 0 4 ack 40 ------- 0 0.1 4.4 1 60
- 6.225442 0 4 ack 40 ------- 0 0.1 4.4 1 60
r 6.225655 4 0 tcp 40 ------- 0 4.4 0.1 1 58
r 6.226109 4 0 tcp 85 ------- 0 4.4 0.1 1 59
r 6.226655 0 4 ack 40 ------- 0 0.1 4.4 1 60
+ 6.226655 4 0 tcp 40 ------- 0 4.4 0.1 46 61
- 6.226655 4 0 tcp 40 ------- 0 4.4 0.1 46 61
r 6.227869 4 0 tcp 40 ------- 0 4.4 0.1 46 61
+ 6.251706 5 4 tcp 40 ------- 0 5.2 4.2 0 62
- 6.251706 5 4 tcp 40 ------- 0 5.2 4.2 0 62
r 6.252919 5 4 tcp 40 ------- 0 5.2 4.2 0 62
+ 6.252919 4 5 ack 40 ------- 0 4.2 5.2 0 63
- 6.252919 4 5 ack 40 ------- 0 4.2 5.2 0 63
r 6.254133 4 5 ack 40 ------- 0 4.2 5.2 0 63
+ 6.254133 5 4 tcp 40 ------- 0 5.2 4.2 1 64
- 6.254133 5 4 tcp 40 ------- 0 5.2 4.2 1 64
+ 6.254133 5 4 tcp 40 ------- 0 5.2 4.2 1 65
+ 6.254133 5 4 tcp 85 ------- 0 5.2 4.2 1 66
- 6.254346 5 4 tcp 40 ------- 0 5.2 4.2 1 65
- 6.254559 5 4 tcp 85 ------- 0 5.2 4.2 1 66
r 6.255346 5 4 tcp 40 ------- 0 5.2 4.2 1 64
+ 6.255346 4 5 ack 40 ------- 0 4.2 5.2 1 67
- 6.255346 4 5 ack 40 ------- 0 4.2 5.2 1 67
r 6.255559 5 4 tcp 40 ------- 0 5.2 4.2 1 65
r 6.256013 5 4 tcp 85 ------- 0 5.2 4.2 1 66
r 6.256559 4 5 ack 40 ------- 0 4.2 5.2 1 67
+ 6.256559 5 4 tcp 40 ------- 0 5.2 4.2 46 68
- 6.256559 5 4 tcp 40 ------- 0 5.2 4.2 46 68
r 6.257773 5 4 tcp 40 ------- 0 5.2 4.2 46 68
+ 6.373309 3 2 tcp 40 ------- 0 3.2 2.0 0 69
- 6.373309 3 2 tcp 40 ------- 0 3.2 2.0 0 69
r 6.374522 3 2 tcp 40 ------- 0 3.2 2.0 0 69
+ 6.374522 2 3 ack 40 ------- 0 2.0 3.2 0 70
- 6.374522 2 3 ack 40 ------- 0 2.0 3.2 0 70
r 6.375735 2 3 ack 40 ------- 0 2.0 3.2 0 70
+ 6.375735 3 2 tcp 40 ------- 0 3.2 2.0 1 71
- 6.375735 3 2 tcp 40 ------- 0 3.2 2.0 1 71
+ 6.375735 3 2 tcp 40 ------- 0 3.2 2.0 1 72
+ 6.375735 3 2 tcp 85 ------- 0 3.2 2.0 1 73
- 6.375949 3 2 tcp 40 ------- 0 3.2 2.0 1 72
- 6.376162 3 2 tcp 85 ------- 0 3.2 2.0 1 73
r 6.376949 3 2 tcp 40 ------- 0 3.2 2.0 1 71
+ 6.376949 2 3 ack 40 ------- 0 2.0 3.2 1 74
- 6.376949 2 3 ack 40 ------- 0 2.0 3.2 1 74
r 6.377162 3 2 tcp 40 ------- 0 3.2 2.0 1 72
r 6.377615 3 2 tcp 85 ------- 0 3.2 2.0 1 73
r 6.378162 2 3 ack 40 ------- 0 2.0 3.2 1 74
+ 6.378162 3 2 tcp 40 ------- 0 3.2 2.0 46 75
- 6.378162 3 2 tcp 40 ------- 0 3.2 2.0 46 75
r 6.379375 3 2 tcp 40 ------- 0 3.2 2.0 46 75
+ 6.424229 4 0 tcp 85 ------- 0 4.4 0.1 1 76
- 6.424229 4 0 tcp 85 ------- 0 4.4 0.1 1 76
r 6.425682 4 0 tcp 85 ------- 0 4.4 0.1 1 76
+ 6.425682 0 4 ack 40 ------- 0 0.1 4.4 2 77
- 6.425682 0 4 ack 40 ------- 0 0.1 4.4 2 77
r 6.426895 0 4 ack 40 ------- 0 0.1 4.4 2 77
+ 6.426895 4 0 tcp 40 ------- 0 4.4 0.1 46 78
- 6.426895 4 0 tcp 40 ------- 0 4.4 0.1 46 78
r 6.428109 4 0 tcp 40 ------- 0 4.4 0.1 46 78
+ 6.428109 0 4 ack 40 ------- 0 0.1 4.4 2 79
- 6.428109 0 4 ack 40 ------- 0 0.1 4.4 2 79
r 6.429322 0 4 ack 40 ------- 0 0.1 4.4 2 79
+ 6.454133 5 4 tcp 85 ------- 0 5.2 4.2 1 80
- 6.454133 5 4 tcp 85 ------- 0 5.2 4.2 1 80
+ 6.455193 3 0 tcp 40 ------- 0 3.3 0.2 0 81
- 6.455193 3 0 tcp 40 ------- 0 3.3 0.2 0 81
r 6.455586 5 4 tcp 85 ------- 0 5.2 4.2 1 80
+ 6.455586 4 5 ack 40 ------- 0 4.2 5.2 2 82
- 6.455586 4 5 ack 40 ------- 0 4.2 5.2 2 82
r 6.456406 3 0 tcp 40 ------- 0 3.3 0.2 0 81
+ 6.456406 0 3 ack 40 ------- 0 0.2 3.3 0 83
- 6.456406 0 3 ack 40 ------- 0 0.2 3.3 0 83
r 6.456799 4 5 ack 40 ------- 0 4.2 5.2 2 82
+ 6.456799 5 4 tcp 40 ------- 0 5.2 4.2 46 84
- 6.456799 5 4 tcp 40 ------- 0 5.2 4.2 46 84
r 6.457619 0 3 ack 40 ------- 0 0.2 3.3 0 83
+ 6.457619 3 0 tcp 40 ------- 0 3.3 0.2 1 85
- 6.457619 3 0 tcp 40 ------- 0 3.3 0.2 1 85
+ 6.457619 3 0 tcp 40 ------- 0 3.3 0.2 1 86
+ 6.457619 3 0 tcp 85 ------- 0 3.3 0.2 1 87
- 6.457833 3 0 tcp 40 ------- 0 3.3 0.2 1 86
r 6.458013 5 4 tcp 40 ------- 0 5.2 4.2 46 84
+ 6.458013 4 5 ack 40 ------- 0 4.2 5.2 2 88
- 6.458013 4 5 ack 40 ------- 0 4.2 5.2 2 88
- 6.458046 3 0 tcp 85 ------- 0 3.3 0.2 1 87
r 6.458833 3 0 tcp 40 ------- 0 3.3 0.2 1 85
+ 6.458833 0 3 ack 40 ------- 0 0.2 3.3 1 89
- 6.458833 0 3 ack 40 ------- 0 0.2 3.3 1 89
r 6.459046 3 0 tcp 40 ------- 0 3.3 0.2 1 86
r 6.459226 4 5 ack 40 ------- 0 4.2 5.2 2 88
r 6.459499 3 0 tcp 85 ------- 0 3.3 0.2 1 87
r 6.460046 0 3 ack 40 ------- 0 0.2 3.3 1 89
+ 6.460046 3 0 tcp 40 ------- 0 3.3 0.2 46 90
- 6.460046 3 0 tcp 40 ------- 0 3.3 0.2 46 90
r 6.461259 3 0 tcp 40 ------- 0 3.3 0.2 46 90
+ 6.521294 0 4 tcp 40 ------- 0 0.4 4.5 0 91
- 6.521294 0 4 tcp 40 ------- 0 0.4 4.5 0 91
r 6.522508 0 4 tcp 40 ------- 0 0.4 4.5 0 91
+ 6.522508 4 0 ack 40 ------- 0 4.5 0.4 0 92
- 6.522508 4 0 ack 40 ------- 0 4.5 0.4 0 92
r 6.523721 4 0 ack 40 ------- 0 4.5 0.4 0 92
+ 6.523721 0 4 tcp 40 ------- 0 0.4 4.5 1 93
- 6.523721 0 4 tcp 40 ------- 0 0.4 4.5 1 93
+ 6.523721 0 4 tcp 40 ------- 0 0.4 4.5 1 94
+ 6.523721 0 4 tcp 85 ------- 0 0.4 4.5 1 95
- 6.523934 0 4 tcp 40 ------- 0 0.4 4.5 1 94
- 6.524148 0 4 tcp 85 ------- 0 0.4 4.5 1 95
r 6.524934 0 4 tcp 40 ------- 0 0.4 4.5 1 93
r 6.525148 0 4 tcp 40 ------- 0 0.4 4.5 1 94
r 6.525601 0 4 tcp 85 ------- 0 0.4 4.5 1 95
+ 6.525601 4 0 ack 85 ------- 0 4.5 0.4 1 96
- 6.525601 4 0 ack 85 ------- 0 4.5 0.4 1 96
r 6.527054 4 0 ack 85 ------- 0 4.5 0.4 1 96
+ 6.527054 0 4 tcp 59 ------- 0 0.4 4.5 46 97
- 6.527054 0 4 tcp 59 ------- 0 0.4 4.5 46 97
r 6.528369 0 4 tcp 59 ------- 0 0.4 4.5 46 97
+ 6.528369 4 0 ack 59 ------- 0 4.5 0.4 46 98
- 6.528369 4 0 ack 59 ------- 0 4.5 0.4 46 98
r 6.529684 4 0 ack 59 ------- 0 4.5 0.4 46 98
+ 6.529684 0 4 tcp 59 ------- 0 0.4 4.5 65 99
- 6.529684 0 4 tcp 59 ------- 0 0.4 4.5 65 99
r 6.530998 0 4 tcp 59 ------- 0 0.4 4.5 65 99
+ 6.530998 4 0 ack 59 ------- 0 4.5 0.4 65 100
- 6.530998 4 0 ack 59 ------- 0 4.5 0.4 65 100
r 6.532313 4 0 ack 59 ------- 0 4.5 0.4 65 100
+ 6.538984 4 2 tcp 40 ------- 0 4.7 2.1 0 101
- 6.538984 4 2 tcp 40 ------- 0 4.7 2.1 0 101
r 6.540197 4 2 tcp 40 ------- 0 4.7 2.1 0 101
+ 6.540197 2 4 ack 40 ------- 0 2.1 4.7 0 102
- 6.540197 2 4 ack 40 ------- 0 2.1 4.7 0 102
r 6.54141 2 4 ack 40 ------- 0 2.1 4.7 0 102
+ 6.54141 4 2 tcp 40 ------- 0 4.7 2.1 1 103
- 6.54141 4 2 tcp 40 ------- 0 4.7 2.1 1 103
+ 6.54141 4 2 tcp 40 ------- 0 4.7 2.1 1 104
+ 6.54141 4 2 tcp 85 ------- 0 4.7 2.1 1 105
- 6.541624 4 2 tcp 40 ------- 0 4.7 2.1 1 104
- 6.541837 4 2 tcp 85 ------- 0 4.7 2.1 1 105
r 6.542624 4 2 tcp 40 ------- 0 4.7 2.1 1 103
+ 6.542624 2 4 ack 40 ------- 0 2.1 4.7 1 106
- 6.542624 2 4 ack 40 ------- 0 2.1 4.7 1 106
r 6.542837 4 2 tcp 40 ------- 0 4.7 2.1 1 104
r 6.54329 4 2 tcp 85 ------- 0 4.7 2.1 1 105
r 6.543837 2 4 ack 40 ------- 0 2.1 4.7 1 106
+ 6.543837 4 2 tcp 40 ------- 0 4.7 2.1 46 107
- 6.543837 4 2 tcp 40 ------- 0 4.7 2.1 46 107
r 6.54505 4 2 tcp 40 ------- 0 4.7 2.1 46 107
+ 6.575735 3 2 tcp 85 ------- 0 3.2 2.0 1 108
- 6.575735 3 2 tcp 85 ------- 0 3.2 2.0 1 108
r 6.577189 3 2 tcp 85 ------- 0 3.2 2.0 1 108
+ 6.577189 2 3 ack 40 ------- 0 2.0 3.2 2 109
- 6.577189 2 3 ack 40 ------- 0 2.0 3.2 2 109
r 6.578402 2 3 ack 40 ------- 0 2.0 3.2 2 109
+ 6.578402 3 2 tcp 40 ------- 0 3.2 2.0 46 110
- 6.578402 3 2 tcp 40 ------- 0 3.2 2.0 46 110
r 6.579615 3 2 tcp 40 ------- 0 3.2 2.0 46 110
+ 6.579615 2 3 ack 40 ------- 0 2.0 3.2 2 111
- 6.579615 2 3 ack 40 ------- 0 2.0 3.2 2 111
r 6.580829 2 3 ack 40 ------- 0 2.0 3.2 2 111
+ 6.589851 2 0 tcp 40 ------- 0 2.3 0.3 0 112
- 6.589851 2 0 tcp 40 ------- 0 2.3 0.3 0 112
r 6.591065 2 0 tcp 40 ------- 0 2.3 0.3 0 112
+ 6.591065 0 2 ack 40 ------- 0 0.3 2.3 0 113
- 6.591065 0 2 ack 40 ------- 0 0.3 2.3 0 113
r 6.592278 0 2 ack 40 ------- 0 0.3 2.3 0 113
+ 6.592278 2 0 tcp 40 ------- 0 2.3 0.3 1 114
- 6.592278 2 0 tcp 40 ------- 0 2.3 0.3 1 114
+ 6.592278 2 0 tcp 40 ------- 0 2.3 0.3 1 115
+ 6.592278 2 0 tcp 85 ------- 0 2.3 0.3 1 116
- 6.592491 2 0 tcp 40 ------- 0 2.3 0.3 1 115
- 6.592705 2 0 tcp 85 ------- 0 2.3 0.3 1 116
r 6.593491 2 0 tcp 40 ------- 0 2.3 0.3 1 114
+ 6.593491 0 2 ack 40 ------- 0 0.3 2.3 1 117
- 6.593491 0 2 ack 40 ------- 0 0.3 2.3 1 117
r 6.593705 2 0 tcp 40 ------- 0 2.3 0.3 1 115
r 6.594158 2 0 tcp 85 ------- 0 2.3 0.3 1 116
r 6.594705 0 2 ack 40 ------- 0 0.3 2.3 1 117
+ 6.594705 2 0 tcp 40 ------- 0 2.3 0.3 46 118
- 6.594705 2 0 tcp 40 ------- 0 2.3 0.3 46 118
r 6.595918 2 0 tcp 40 ------- 0 2.3 0.3 46 118
+ 6.6 0 4 tcp 40 ------- 0 0.4 4.5 84 119
- 6.6 0 4 tcp 40 ------- 0 0.4 4.5 84 119
r 6.601213 0 4 tcp 40 ------- 0 0.4 4.5 84 119
+ 6.650829 0 3 tcp 40 ------- 0 0.6 3.1 0 120
- 6.650829 0 3 tcp 40 ------- 0 0.6 3.1 0 120
r 6.652043 0 3 tcp 40 ------- 0 0.6 3.1 0 120
+ 6.652043 3 0 ack 40 ------- 0 3.1 0.6 0 121
- 6.652043 3 0 ack 40 ------- 0 3.1 0.6 0 121
r 6.653256 3 0 ack 40 ------- 0 3.1 0.6 0 121
+ 6.653256 0 3 tcp 40 ------- 0 0.6 3.1 1 122
- 6.653256 0 3 tcp 40 ------- 0 0.6 3.1 1 122
+ 6.653256 0 3 tcp 40 ------- 0 0.6 3.1 1 123
+ 6.653256 0 3 tcp 85 ------- 0 0.6 3.1 1 124
- 6.653469 0 3 tcp 40 ------- 0 0.6 3.1 1 123
- 6.653683 0 3 tcp 85 ------- 0 0.6 3.1 1 124
r 6.654469 0 3 tcp 40 ------- 0 0.6 3.1 1 122
r 6.654683 0 3 tcp 40 ------- 0 0.6 3.1 1 123
r 6.655136 0 3 tcp 85 ------- 0 0.6 3.1 1 124
+ 6.655136 3 0 ack 85 ------- 0 3.1 0.6 1 125
- 6.655136 3 0 ack 85 ------- 0 3.1 0.6 1 125
r 6.656589 3 0 ack 85 ------- 0 3.1 0.6 1 125
+ 6.656589 0 3 tcp 59 ------- 0 0.6 3.1 46 126
- 6.656589 0 3 tcp 59 ------- 0 0.6 3.1 46 126
+ 6.657619 3 0 tcp 85 ------- 0 3.3 0.2 1 127
- 6.657619 3 0 tcp 85 ------- 0 3.3 0.2 1 127
r 6.657904 0 3 tcp 59 ------- 0 0.6 3.1 46 126
+ 6.657904 3 0 ack 59 ------- 0 3.1 0.6 46 128
- 6.658073 3 0 ack 59 ------- 0 3.1 0.6 46 128
+ 6.658567 1 2 tcp 40 ------- 0 1.5 2.2 0 129
- 6.658567 1 2 tcp 40 ------- 0 1.5 2.2 0 129
r 6.659073 3 0 tcp 85 ------- 0 3.3 0.2 1 127
+ 6.659073 0 3 ack 40 ------- 0 0.2 3.3 2 130
- 6.659073 0 3 ack 40 ------- 0 0.2 3.3 2 130
r 6.659387 3 0 ack 59 ------- 0 3.1 0.6 46 128
+ 6.659387 0 3 tcp 59 ------- 0 0.6 3.1 65 131
- 6.659387 0 3 tcp 59 ------- 0 0.6 3.1 65 131
r 6.65978 1 2 tcp 40 ------- 0 1.5 2.2 0 129
+ 6.65978 2 1 ack 40 ------- 0 2.2 1.5 0 132
- 6.65978 2 1 ack 40 ------- 0 2.2 1.5 0 132
r 6.660286 0 3 ack 40 ------- 0 0.2 3.3 2 130
+ 6.660286 3 0 tcp 40 ------- 0 3.3 0.2 46 133
- 6.660286 3 0 tcp 40 ------- 0 3.3 0.2 46 133
r 6.660702 0 3 tcp 59 ------- 0 0.6 3.1 65 131
+ 6.660702 3 0 ack 59 ------- 0 3.1 0.6 65 134
- 6.660702 3 0 ack 59 ------- 0 3.1 0.6 65 134
r 6.660993 2 1 ack 40 ------- 0 2.2 1.5 0 132
+ 6.660993 1 2 tcp 40 ------- 0 1.5 2.2 1 135
- 6.660993 1 2 tcp 40 ------- 0 1.5 2.2 1 135
+ 6.660993 1 2 tcp 40 ------- 0 1.5 2.2 1 136
+ 6.660993 1 2 tcp 85 ------- 0 1.5 2.2 1 137
- 6.661207 1 2 tcp 40 ------- 0 1.5 2.2 1 136
- 6.66142 1 2 tcp 85 ------- 0 1.5 2.2 1 137
r 6.661499 3 0 tcp 40 ------- 0 3.3 0.2 46 133
+ 6.661499 0 3 ack 40 ------- 0 0.2 3.3 2 138
- 6.661499 0 3 ack 40 ------- 0 0.2 3.3 2 138
r 6.662017 3 0 ack 59 ------- 0 3.1 0.6 65 134
r 6.662207 1 2 tcp 40 ------- 0 1.5 2.2 1 135
+ 6.662207 2 1 ack 40 ------- 0 2.2 1.5 1 139
- 6.662207 2 1 ack 40 ------- 0 2.2 1.5 1 139
r 6.66242 1 2 tcp 40 ------- 0 1.5 2.2 1 136
r 6.662713 0 3 ack 40 ------- 0 0.2 3.3 2 138
r 6.662873 1 2 tcp 85 ------- 0 1.5 2.2 1 137
r 6.66342 2 1 ack 40 ------- 0 2.2 1.5 1 139
+ 6.66342 1 2 tcp 40 ------- 0 1.5 2.2 46 140
- 6.66342 1 2 tcp 40 ------- 0 1.5 2.2 46 140
r 6.664633 1 2 tcp 40 ------- 0 1.5 2.2 46 140
+ 6.7 0 3 tcp 40 ------- 0 0.6 3.1 84 141
- 6.7 0 3 tcp 40 ------- 0 0.6 3.1 84 141
r 6.701213 0 3 tcp 40 ------- 0 0.6 3.1 84 141
+ 6.74141 4 2 tcp 85 ------- 0 4.7 2.1 1 142
- 6.74141 4 2 tcp 85 ------- 0 4.7 2.1 1 142
r 6.742864 4 2 tcp 85 ------- 0 4.7 2.1 1 142
+ 6.742864 2 4 ack 40 ------- 0 2.1 4.7 2 143
- 6.742864 2 4 ack 40 ------- 0 2.1 4.7 2 143
r 6.744077 2 4 ack 40 ------- 0 2.1 4.7 2 143
+ 6.744077 4 2 tcp 40 ------- 0 4.7 2.1 46 144
- 6.744077 4 2 tcp 40 ------- 0 4.7 2.1 46 144
r 6.74529 4 2 tcp 40 ------- 0 4.7 2.1 46 144
+ 6.74529 2 4 ack 40 ------- 0 2.1 4.7 2 145
- 6.74529 2 4 ack 40 ------- 0 2.1 4.7 2 145
r 6.746504 2 4 ack 40 ------- 0 2.1 4.7 2 145
+ 6.792278 2 0 tcp 85 ------- 0 2.3 0.3 1 146
- 6.792278 2 0 tcp 85 ------- 0 2.3 0.3 1 146
r 6.793731 2 0 tcp 85 ------- 0 2.3 0.3 1 146
+ 6.793731 0 2 ack 40 ------- 0 0.3 2.3 2 147
- 6.793731 0 2 ack 40 ------- 0 0.3 2.3 2 147
r 6.794945 0 2 ack 40 ------- 0 0.3 2.3 2 147
+ 6.794945 2 0 tcp 40 ------- 0 2.3 0.3 46 148
- 6.794945 2 0 tcp 40 ------- 0 2.3 0.3 46 148
r 6.796158 2 0 tcp 40 ------- 0 2.3 0.3 46 148
+ 6.796158 0 2 ack 40 ------- 0 0.3 2.3 2 149
- 6.796158 0 2 ack 40 ------- 0 0.3 2.3 2 149
r 6.797371 0 2 ack 40 ------- 0 0.3 2.3 2 149
+ 6.860993 1 2 tcp 85 ------- 0 1.5 2.2 1 150
- 6.860993 1 2 tcp 85 ------- 0 1.5 2.2 1 150
r 6.862447 1 2 tcp 85 ------- 0 1.5 2.2 1 150
+ 6.862447 2 1 ack 40 ------- 0 2.2 1.5 2 151
- 6.862447 2 1 ack 40 ------- 0 2.2 1.5 2 151
r 6.86366 2 1 ack 40 ------- 0 2.2 1.5 2 151
+ 6.86366 1 2 tcp 40 ------- 0 1.5 2.2 46 152
- 6.86366 1 2 tcp 40 ------- 0 1.5 2.2 46 152
r 6.864873 1 2 tcp 40 ------- 0 1.5 2.2 46 152
+ 6.864873 2 1 ack 40 ------- 0 2.2 1.5 2 153
- 6.864873 2 1 ack 40 ------- 0 2.2 1.5 2 153
r 6.866087 2 1 ack 40 ------- 0 2.2 1.5 2 153
+ 6.919877 2 4 tcp 40 ------- 0 2.5 4.6 0 154
- 6.919877 2 4 tcp 40 ------- 0 2.5 4.6 0 154
r 6.92109 2 4 tcp 40 ------- 0 2.5 4.6 0 154
+ 6.92109 4 2 ack 40 ------- 0 4.6 2.5 0 155
- 6.92109 4 2 ack 40 ------- 0 4.6 2.5 0 155
r 6.922304 4 2 ack 40 ------- 0 4.6 2.5 0 155
+ 6.922304 2 4 tcp 40 ------- 0 2.5 4.6 1 156
- 6.922304 2 4 tcp 40 ------- 0 2.5 4.6 1 156
+ 6.922304 2 4 tcp 40 ------- 0 2.5 4.6 1 157
+ 6.922304 2 4 tcp 85 ------- 0 2.5 4.6 1 158
- 6.922517 2 4 tcp 40 ------- 0 2.5 4.6 1 157
- 6.92273 2 4 tcp 85 ------- 0 2.5 4.6 1 158
r 6.923517 2 4 tcp 40 ------- 0 2.5 4.6 1 156
r 6.92373 2 4 tcp 40 ------- 0 2.5 4.6 1 157
r 6.924184 2 4 tcp 85 ------- 0 2.5 4.6 1 158
+ 6.924184 4 2 ack 85 ------- 0 4.6 2.5 1 159
- 6.924184 4 2 ack 85 ------- 0 4.6 2.5 1 159
r 6.925637 4 2 ack 85 ------- 0 4.6 2.5 1 159
+ 6.925637 2 4 tcp 59 ------- 0 2.5 4.6 46 160
- 6.925637 2 4 tcp 59 ------- 0 2.5 4.6 46 160
r 6.926952 2 4 tcp 59 ------- 0 2.5 4.6 46 160
+ 6.926952 4 2 ack 59 ------- 0 4.6 2.5 46 161
- 6.926952 4 2 ack 59 ------- 0 4.6 2.5 46 161
r 6.928266 4 2 ack 59 ------- 0 4.6 2.5 46 161
+ 6.928266 2 4 tcp 59 ------- 0 2.5 4.6 65 162
- 6.928266 2 4 tcp 59 ------- 0 2.5 4.6 65 162
r 6.929581 2 4 tcp 59 ------- 0 2.5 4.6 65 162
+ 6.929581 4 2 ack 59 ------- 0 4.6 2.5 65 163
- 6.929581 4 2 ack 59 ------- 0 4.6 2.5 65 163
r 6.930896 4 2 ack 59 ------- 0 4.6 2.5 65 163
+ 7 2 4 tcp 40 ------- 0 2.5 4.6 84 164
- 7 2 4 tcp 40 ------- 0 2.5 4.6 84 164
r 7.001213 2 4 tcp 40 ------- 0 2.5 4.6 84 164
+ 7.146725 0 1 tcp 40 ------- 0 0.7 1.4 0 165
- 7.146725 0 1 tcp 40 ------- 0 0.7 1.4 0 165
r 7.147938 0 1 tcp 40 ------- 0 0.7 1.4 0 165
+ 7.147938 1 0 ack 40 ------- 0 1.4 0.7 0 166
- 7.147938 1 0 ack 40 ------- 0 1.4 0.7 0 166
r 7.149152 1 0 ack 40 ------- 0 1.4 0.7 0 166
+ 7.149152 0 1 tcp 40 ------- 0 0.7 1.4 1 167
- 7.149152 0 1 tcp 40 ------- 0 0.7 1.4 1 167
+ 7.149152 0 1 tcp 40 ------- 0 0.7 1.4 1 168
+ 7.149152 0 1 tcp 85 ------- 0 0.7 1.4 1 169
- 7.149365 0 1 tcp 40 ------- 0 0.7 1.4 1 168
- 7.149578 0 1 tcp 85 ------- 0 0.7 1.4 1 169
r 7.150365 0 1 tcp 40 ------- 0 0.7 1.4 1 167
r 7.150578 0 1 tcp 40 ------- 0 0.7 1.4 1 168
r 7.151032 0 1 tcp 85 ------- 0 0.7 1.4 1 169
+ 7.151032 1 0 ack 85 ------- 0 1.4 0.7 1 170
- 7.151032 1 0 ack 85 ------- 0 1.4 0.7 1 170
r 7.152485 1 0 ack 85 ------- 0 1.4 0.7 1 170
+ 7.152485 0 1 tcp 59 ------- 0 0.7 1.4 46 171
- 7.152485 0 1 tcp 59 ------- 0 0.7 1.4 46 171
r 7.1538 0 1 tcp 59 ------- 0 0.7 1.4 46 171
+ 7.1538 1 0 ack 59 ------- 0 1.4 0.7 46 172
- 7.1538 1 0 ack 59 ------- 0 1.4 0.7 46 172
r 7.155114 1 0 ack 59 ------- 0 1.4 0.7 46 172
+ 7.155114 0 1 tcp 59 ------- 0 0.7 1.4 65 173
- 7.155114 0 1 tcp 59 ------- 0 0.7 1.4 65 173
r 7.156429 0 1 tcp 59 ------- 0 0.7 1.4 65 173
+ 7.156429 1 0 ack 59 ------- 0 1.4 0.7 65 174
- 7.156429 1 0 ack 59 ------- 0 1.4 0.7 65 174
r 7.157744 1 0 ack 59 ------- 0 1.4 0.7 65 174
+ 7.179215 2 3 tcp 40 ------- 0 2.6 3.4 0 175
- 7.179215 2 3 tcp 40 ------- 0 2.6 3.4 0 175
r 7.180428 2 3 tcp 40 ------- 0 2.6 3.4 0 175
+ 7.180428 3 2 ack 40 ------- 0 3.4 2.6 0 176
- 7.180428 3 2 ack 40 ------- 0 3.4 2.6 0 176
r 7.181642 3 2 ack 40 ------- 0 3.4 2.6 0 176
+ 7.181642 2 3 tcp 40 ------- 0 2.6 3.4 1 177
- 7.181642 2 3 tcp 40 ------- 0 2.6 3.4 1 177
+ 7.181642 2 3 tcp 40 ------- 0 2.6 3.4 1 178
+ 7.181642 2 3 tcp 85 ------- 0 2.6 3.4 1 179
- 7.181855 2 3 tcp 40 ------- 0 2.6 3.4 1 178
- 7.182068 2 3 tcp 85 ------- 0 2.6 3.4 1 179
r 7.182855 2 3 tcp 40 ------- 0 2.6 3.4 1 177
r 7.183068 2 3 tcp 40 ------- 0 2.6 3.4 1 178
r 7.183522 2 3 tcp 85 ------- 0 2.6 3.4 1 179
+ 7.183522 3 2 ack 85 ------- 0 3.4 2.6 1 180
- 7.183522 3 2 ack 85 ------- 0 3.4 2.6 1 180
r 7.184975 3 2 ack 85 ------- 0 3.4 2.6 1 180
+ 7.184975 2 3 tcp 59 ------- 0 2.6 3.4 46 181
- 7.184975 2 3 tcp 59 ------- 0 2.6 3.4 46 181
r 7.18629 2 3 tcp 59 ------- 0 2.6 3.4 46 181
+ 7.18629 3 2 ack 59 ------- 0 3.4 2.6 46 182
- 7.18629 3 2 ack 59 ------- 0 3.4 2.6 46 182
r 7.187604 3 2 ack 59 ------- 0 3.4 2.6 46 182
+ 7.187604 2 3 tcp 59 ------- 0 2.6 3.4 65 183
- 7.187604 2 3 tcp 59 ------- 0 2.6 3.4 65 183
r 7.188919 2 3 tcp 59 ------- 0 2.6 3.4 65 183
+ 7.188919 3 2 ack 59 ------- 0 3.4 2.6 65 184
- 7.188919 3 2 ack 59 ------- 0 3.4 2.6 65 184
r 7.190234 3 2 ack 59 ------- 0 3.4 2.6 65 184
+ 7.2 0 1 tcp 40 ------- 0 0.7 1.4 84 185
- 7.2 0 1 tcp 40 ------- 0 0.7 1.4 84 185
+ 7.2 2 3 tcp 40 ------- 0 2.6 3.4 84 186
- 7.2 2 3 tcp 40 ------- 0 2.6 3.4 84 186
r 7.201213 0 1 tcp 40 ------- 0 0.7 1.4 84 185
r 7.201213 2 3 tcp 40 ------- 0 2.6 3.4 84 186
+ 7.222868 5 3 tcp 40 ------- 0 5.3 3.5 0 187
- 7.222868 5 3 tcp 40 ------- 0 5.3 3.5 0 187
r 7.224081 5 3 tcp 40 ------- 0 5.3 3.5 0 187
+ 7.224081 3 5 ack 40 ------- 0 3.5 5.3 0 188
- 7.224081 3 5 ack 40 ------- 0 3.5 5.3 0 188
r 7.225294 3 5 ack 40 ------- 0 3.5 5.3 0 188
+ 7.225294 5 3 tcp 40 ------- 0 5.3 3.5 1 189
- 7.225294 5 3 tcp 40 ------- 0 5.3 3.5 1 189
+ 7.225294 5 3 tcp 40 ------- 0 5.3 3.5 1 190
+ 7.225294 5 3 tcp 85 ------- 0 5.3 3.5 1 191
- 7.225508 5 3 tcp 40 ------- 0 5.3 3.5 1 190
- 7.225721 5 3 tcp 85 ------- 0 5.3 3.5 1 191
r 7.226508 5 3 tcp 40 ------- 0 5.3 3.5 1 189
+ 7.226508 3 5 ack 40 ------- 0 3.5 5.3 1 192
- 7.226508 3 5 ack 40 ------- 0 3.5 5.3 1 192
r 7.226721 5 3 tcp 40 ------- 0 5.3 3.5 1 190
r 7.227174 5 3 tcp 85 ------- 0 5.3 3.5 1 191
r 7.227721 3 5 ack 40 ------- 0 3.5 5.3 1 192
+ 7.227721 5 3 tcp 40 ------- 0 5.3 3.5 46 193
- 7.227721 5 3 tcp 40 ------- 0 5.3 3.5 46 193
r 7.228934 5 3 tcp 40 ------- 0 5.3 3.5 46 193
+ 7.277832 2 5 tcp 40 ------- 0 2.7 5.0 0 194
- 7.277832 2 5 tcp 40 ------- 0 2.7 5.0 0 194
r 7.279046 2 5 tcp 40 ------- 0 2.7 5.0 0 194
+ 7.279046 5 2 ack 40 ------- 0 5.0 2.7 0 195
- 7.279046 5 2 ack 40 ------- 0 5.0 2.7 0 195
r 7.280259 5 2 ack 40 ------- 0 5.0 2.7 0 195
+ 7.280259 2 5 tcp 40 ------- 0 2.7 5.0 1 196
- 7.280259 2 5 tcp 40 ------- 0 2.7 5.0 1 196
+ 7.280259 2 5 tcp 40 ------- 0 2.7 5.0 1 197
+ 7.280259 2 5 tcp 85 ------- 0 2.7 5.0 1 198
- 7.280472 2 5 tcp 40 ------- 0 2.7 5.0 1 197
- 7.280686 2 5 tcp 85 ------- 0 2.7 5.0 1 198
r 7.281472 2 5 tcp 40 ------- 0 2.7 5.0 1 196
+ 7.281472 5 2 ack 40 ------- 0 5.0 2.7 1 199
- 7.281472 5 2 ack 40 ------- 0 5.0 2.7 1 199
r 7.281686 2 5 tcp 40 ------- 0 2.7 5.0 1 197
r 7.282139 2 5 tcp 85 ------- 0 2.7 5.0 1 198
r 7.282686 5 2 ack 40 ------- 0 5.0 2.7 1 199
+ 7.282686 2 5 tcp 40 ------- 0 2.7 5.0 46 200
- 7.282686 2 5 tcp 40 ------- 0 2.7 5.0 46 200
r 7.283899 2 5 tcp 40 ------- 0 2.7 5.0 46 200
+ 7.292521 0 2 tcp 40 ------- 0 0.8 2.4 0 201
- 7.292521 0 2 tcp 40 ------- 0 0.8 2.4 0 201
r 7.293734 0 2 tcp 40 ------- 0 0.8 2.4 0 201
+ 7.293734 2 0 ack 40 ------- 0 2.4 0.8 0 202
- 7.293734 2 0 ack 40 ------- 0 2.4 0.8 0 202
r 7.294948 2 0 ack 40 ------- 0 2.4 0.8 0 202
+ 7.294948 0 2 tcp 40 ------- 0 0.8 2.4 1 203
- 7.294948 0 2 tcp 40 ------- 0 0.8 2.4 1 203
+ 7.294948 0 2 tcp 40 ------- 0 0.8 2.4 1 204
+ 7.294948 0 2 tcp 85 ------- 0 0.8 2.4 1 205
- 7.295161 0 2 tcp 40 ------- 0 0.8 2.4 1 204
- 7.295374 0 2 tcp 85 ------- 0 0.8 2.4 1 205
r 7.296161 0 2 tcp 40 ------- 0 0.8 2.4 1 203
r 7.296374 0 2 tcp 40 ------- 0 0.8 2.4 1 204
r 7.296828 0 2 tcp 85 ------- 0 0.8 2.4 1 205
+ 7.296828 2 0 ack 85 ------- 0 2.4 0.8 1 206
- 7.296828 2 0 ack 85 ------- 0 2.4 0.8 1 206
r 7.298281 2 0 ack 85 ------- 0 2.4 0.8 1 206
+ 7.298281 0 2 tcp 59 ------- 0 0.8 2.4 46 207
- 7.298281 0 2 tcp 59 ------- 0 0.8 2.4 46 207
r 7.299596 0 2 tcp 59 ------- 0 0.8 2.4 46 207
+ 7.299596 2 0 ack 59 ------- 0 2.4 0.8 46 208
- 7.299596 2 0 ack 59 ------- 0 2.4 0.8 46 208
r 7.30091 2 0 ack 59 ------- 0 2.4 0.8 46 208
+ 7.30091 0 2 tcp 59 ------- 0 0.8 2.4 65 209
- 7.30091 0 2 tcp 59 ------- 0 0.8 2.4 65 209
r 7.302225 0 2 tcp 59 ------- 0 0.8 2.4 65 209
+ 7.302225 2 0 ack 59 ------- 0 2.4 0.8 65 210
- 7.302225 2 0 ack 59 ------- 0 2.4 0.8 65 210
r 7.30354 2 0 ack 59 ------- 0 2.4 0.8 65 210
+ 7.314913 1 5 tcp 40 ------- 0 1.7 5.4 0 211
- 7.314913 1 5 tcp 40 ------- 0 1.7 5.4 0 211
r 7.316126 1 5 tcp 40 ------- 0 1.7 5.4 0 211
+ 7.316126 5 1 ack 40 ------- 0 5.4 1.7 0 212
- 7.316126 5 1 ack 40 ------- 0 5.4 1.7 0 212
r 7.317339 5 1 ack 40 ------- 0 5.4 1.7 0 212
+ 7.317339 1 5 tcp 40 ------- 0 1.7 5.4 1 213
- 7.317339 1 5 tcp 40 ------- 0 1.7 5.4 1 213
+ 7.317339 1 5 tcp 40 ------- 0 1.7 5.4 1 214
+ 7.317339 1 5 tcp 85 ------- 0 1.7 5.4 1 215
- 7.317553 1 5 tcp 40 ------- 0 1.7 5.4 1 214
- 7.317766 1 5 tcp 85 ------- 0 1.7 5.4 1 215
r 7.318553 1 5 tcp 40 ------- 0 1.7 5.4 1 213
r 7.318766 1 5 tcp 40 ------- 0 1.7 5.4 1 214
r 7.319219 1 5 tcp 85 ------- 0 1.7 5.4 1 215
+ 7.319219 5 1 ack 85 ------- 0 5.4 1.7 1 216
- 7.319219 5 1 ack 85 ------- 0 5.4 1.7 1 216
r 7.320673 5 1 ack 85 ------- 0 5.4 1.7 1 216
+ 7.320673 1 5 tcp 59 ------- 0 1.7 5.4 46 217
- 7.320673 1 5 tcp 59 ------- 0 1.7 5.4 46 217
r 7.321987 1 5 tcp 59 ------- 0 1.7 5.4 46 217
+ 7.321987 5 1 ack 59 ------- 0 5.4 1.7 46 218
- 7.321987 5 1 ack 59 ------- 0 5.4 1.7 46 218
r 7.323302 5 1 ack 59 ------- 0 5.4 1.7 46 218
+ 7.323302 1 5 tcp 59 ------- 0 1.7 5.4 65 219