+ 5.059379 2 1 tcp 40 ------- 0 2.1 1.0 0 0
- 5.059379 2 1 tcp 40 ------- 0 2.1 1.0 0 0
r 5.060592 2 1 tcp 40 ------- 0 2.1 1.0 0 0
+ 5.060592 1 2 ack 40 ------- 0 1.0 2.1 0 1
- 5.060592 1 2 ack 40 ------- 0 1.0 2.1 0 1
r 5.061805 1 2 ack 40 ------- 0 1.0 2.1 0 1
+ 5.061805 2 1 tcp 40 ------- 0 2.1 1.0 1 2
- 5.061805 2 1 tcp 40 ------- 0 2.1 1.0 1 2
+ 5.061805 2 1 tcp 40 ------- 0 2.1 1.0 1 3
+ 5.061805 2 1 tcp 85 ------- 0 2.1 1.0 1 4
- 5.062019 2 1 tcp 40 ------- 0 2.1 1.0 1 3
- 5.062232 2 1 tcp 85 ------- 0 2.1 1.0 1 4
r 5.063019 2 1 tcp 40 ------- 0 2.1 1.0 1 2
+ 5.063019 1 2 ack 40 ------- 0 1.0 2.1 1 5
- 5.063019 1 2 ack 40 ------- 0 1.0 2.1 1 5
r 5.063232 2 1 tcp 40 ------- 0 2.1 1.0 1 3
r 5.063685 2 1 tcp 85 ------- 0 2.1 1.0 1 4
r 5.064232 1 2 ack 40 ------- 0 1.0 2.1 1 5
+ 5.064232 2 1 tcp 40 ------- 0 2.1 1.0 46 6
- 5.064232 2 1 tcp 40 ------- 0 2.1 1.0 46 6
r 5.065445 2 1 tcp 40 ------- 0 2.1 1.0 46 6
+ 5.261805 2 1 tcp 85 ------- 0 2.1 1.0 1 7
- 5.261805 2 1 tcp 85 ------- 0 2.1 1.0 1 7
r 5.263259 2 1 tcp 85 ------- 0 2.1 1.0 1 7
+ 5.263259 1 2 ack 40 ------- 0 1.0 2.1 2 8
- 5.263259 1 2 ack 40 ------- 0 1.0 2.1 2 8
r 5.264472 1 2 ack 40 ------- 0 1.0 2.1 2 8
+ 5.264472 2 1 tcp 40 ------- 0 2.1 1.0 46 9
- 5.264472 2 1 tcp 40 ------- 0 2.1 1.0 46 9
r 5.265685 2 1 tcp 40 ------- 0 2.1 1.0 46 9
+ 5.265685 1 2 ack 40 ------- 0 1.0 2.1 2 10
- 5.265685 1 2 ack 40 ------- 0 1.0 2.1 2 10
r 5.266899 1 2 ack 40 ------- 0 1.0 2.1 2 10
+ 8.065816 1 0 tcp 40 ------- 0 1.2 0.0 0 11
- 8.065816 1 0 tcp 40 ------- 0 1.2 0.0 0 11
r 8.067029 1 0 tcp 40 ------- 0 1.2 0.0 0 11
+ 8.067029 0 1 ack 40 ------- 0 0.0 1.2 0 12
- 8.067029 0 1 ack 40 ------- 0 0.0 1.2 0 12
r 8.068242 0 1 ack 40 ------- 0 0.0 1.2 0 12
+ 8.068242 1 0 tcp 40 ------- 0 1.2 0.0 1 13
- 8.068242 1 0 tcp 40 ------- 0 1.2 0.0 1 13
+ 8.068242 1 0 tcp 40 ------- 0 1.2 0.0 1 14
+ 8.068242 1 0 tcp 85 ------- 0 1.2 0.0 1 15
- 8.068456 1 0 tcp 40 ------- 0 1.2 0.0 1 14
- 8.068669 1 0 tcp 85 ------- 0 1.2 0.0 1 15
r 8.069456 1 0 tcp 40 ------- 0 1.2 0.0 1 13
+ 8.069456 0 1 ack 40 ------- 0 0.0 1.2 1 16
- 8.069456 0 1 ack 40 ------- 0 0.0 1.2 1 16
r 8.069669 1 0 tcp 40 ------- 0 1.2 0.0 1 14
r 8.070122 1 0 tcp 85 ------- 0 1.2 0.0 1 15
r 8.070669 0 1 ack 40 ------- 0 0.0 1.2 1 16
+ 8.070669 1 0 tcp 40 ------- 0 1.2 0.0 46 17
- 8.070669 1 0 tcp 40 ------- 0 1.2 0.0 46 17
r 8.071882 1 0 tcp 40 ------- 0 1.2 0.0 46 17
+ 8.238108 1 2 tcp 40 ------- 0 1.3 2.0 0 18
- 8.238108 1 2 tcp 40 ------- 0 1.3 2.0 0 18
r 8.239321 1 2 tcp 40 ------- 0 1.3 2.0 0 18
+ 8.239321 2 1 ack 40 ------- 0 2.0 1.3 0 19
- 8.239321 2 1 ack 40 ------- 0 2.0 1.3 0 19
r 8.240534 2 1 ack 40 ------- 0 2.0 1.3 0 19
+ 8.240534 1 2 tcp 40 ------- 0 1.3 2.0 1 20
- 8.240534 1 2 tcp 40 ------- 0 1.3 2.0 1 20
+ 8.240534 1 2 tcp 40 ------- 0 1.3 2.0 1 21
+ 8.240534 1 2 tcp 85 ------- 0 1.3 2.0 1 22
- 8.240748 1 2 tcp 40 ------- 0 1.3 2.0 1 21
- 8.240961 1 2 tcp 85 ------- 0 1.3 2.0 1 22
r 8.241748 1 2 tcp 40 ------- 0 1.3 2.0 1 20
r 8.241961 1 2 tcp 40 ------- 0 1.3 2.0 1 21
r 8.242414 1 2 tcp 85 ------- 0 1.3 2.0 1 22
+ 8.242414 2 1 ack 85 ------- 0 2.0 1.3 1 23
- 8.242414 2 1 ack 85 ------- 0 2.0 1.3 1 23
r 8.243868 2 1 ack 85 ------- 0 2.0 1.3 1 23
+ 8.243868 1 2 tcp 59 ------- 0 1.3 2.0 46 24
- 8.243868 1 2 tcp 59 ------- 0 1.3 2.0 46 24
r 8.245182 1 2 tcp 59 ------- 0 1.3 2.0 46 24
+ 8.245182 2 1 ack 59 ------- 0 2.0 1.3 46 25
- 8.245182 2 1 ack 59 ------- 0 2.0 1.3 46 25
r 8.246497 2 1 ack 59 ------- 0 2.0 1.3 46 25
+ 8.246497 1 2 tcp 59 ------- 0 1.3 2.0 65 26
- 8.246497 1 2 tcp 59 ------- 0 1.3 2.0 65 26
r 8.247812 1 2 tcp 59 ------- 0 1.3 2.0 65 26
+ 8.247812 2 1 ack 104 ------- 0 2.0 1.3 65 27
- 8.247812 2 1 ack 104 ------- 0 2.0 1.3 65 27
r 8.249366 2 1 ack 104 ------- 0 2.0 1.3 65 27
+ 8.268242 1 0 tcp 85 ------- 0 1.2 0.0 1 28
- 8.268242 1 0 tcp 85 ------- 0 1.2 0.0 1 28
r 8.269696 1 0 tcp 85 ------- 0 1.2 0.0 1 28
+ 8.269696 0 1 ack 40 ------- 0 0.0 1.2 2 29
- 8.269696 0 1 ack 40 ------- 0 0.0 1.2 2 29
r 8.270909 0 1 ack 40 ------- 0 0.0 1.2 2 29
+ 8.270909 1 0 tcp 40 ------- 0 1.2 0.0 46 30
- 8.270909 1 0 tcp 40 ------- 0 1.2 0.0 46 30
r 8.272122 1 0 tcp 40 ------- 0 1.2 0.0 46 30
+ 8.272122 0 1 ack 40 ------- 0 0.0 1.2 2 31
- 8.272122 0 1 ack 40 ------- 0 0.0 1.2 2 31
r 8.273336 0 1 ack 40 ------- 0 0.0 1.2 2 31
+ 8.3 1 2 tcp 40 ------- 0 1.3 2.0 84 32
- 8.3 1 2 tcp 40 ------- 0 1.3 2.0 84 32
r 8.301213 1 2 tcp 40 ------- 0 1.3 2.0 84 32
+ 8.39398 0 1 tcp 40 ------- 0 0.2 1.1 0 33
- 8.39398 0 1 tcp 40 ------- 0 0.2 1.1 0 33
r 8.395193 0 1 tcp 40 ------- 0 0.2 1.1 0 33
+ 8.395193 1 0 ack 40 ------- 0 1.1 0.2 0 34
- 8.395193 1 0 ack 40 ------- 0 1.1 0.2 0 34
r 8.396407 1 0 ack 40 ------- 0 1.1 0.2 0 34
+ 8.396407 0 1 tcp 40 ------- 0 0.2 1.1 1 35
- 8.396407 0 1 tcp 40 ------- 0 0.2 1.1 1 35
+ 8.396407 0 1 tcp 40 ------- 0 0.2 1.1 1 36
+ 8.396407 0 1 tcp 85 ------- 0 0.2 1.1 1 37
- 8.39662 0 1 tcp 40 ------- 0 0.2 1.1 1 36
- 8.396833 0 1 tcp 85 ------- 0 0.2 1.1 1 37
r 8.39762 0 1 tcp 40 ------- 0 0.2 1.1 1 35
r 8.397833 0 1 tcp 40 ------- 0 0.2 1.1 1 36
r 8.398287 0 1 tcp 85 ------- 0 0.2 1.1 1 37
+ 8.398287 1 0 ack 85 ------- 0 1.1 0.2 1 38
- 8.398287 1 0 ack 85 ------- 0 1.1 0.2 1 38
r 8.39974 1 0 ack 85 ------- 0 1.1 0.2 1 38
+ 8.39974 0 1 tcp 59 ------- 0 0.2 1.1 46 39
- 8.39974 0 1 tcp 59 ------- 0 0.2 1.1 46 39
r 8.401055 0 1 tcp 59 ------- 0 0.2 1.1 46 39
+ 8.401055 1 0 ack 59 ------- 0 1.1 0.2 46 40
- 8.401055 1 0 ack 59 ------- 0 1.1 0.2 46 40
r 8.402369 1 0 ack 59 ------- 0 1.1 0.2 46 40
+ 8.402369 0 1 tcp 59 ------- 0 0.2 1.1 65 41
- 8.402369 0 1 tcp 59 ------- 0 0.2 1.1 65 41
r 8.403684 0 1 tcp 59 ------- 0 0.2 1.1 65 41
+ 8.403684 1 0 ack 106 ------- 0 1.1 0.2 65 42
- 8.403684 1 0 ack 106 ------- 0 1.1 0.2 65 42
r 8.405249 1 0 ack 106 ------- 0 1.1 0.2 65 42
+ 8.5 0 1 tcp 40 ------- 0 0.2 1.1 84 43
- 8.5 0 1 tcp 40 ------- 0 0.2 1.1 84 43
r 8.501213 0 1 tcp 40 ------- 0 0.2 1.1 84 43
+ 60 2 1 ack 67 ---A--- 0 2.0 1.3 129 44
- 60 2 1 ack 67 ---A--- 0 2.0 1.3 129 44
r 60.001357 2 1 ack 67 ---A--- 0 2.0 1.3 129 44
+ 60.001357 1 0 ack 67 ---A--- 0 1.1 0.2 131 45
- 60.001357 1 0 ack 67 ---A--- 0 1.1 0.2 131 45
r 60.002715 1 0 ack 67 ---A--- 0 1.1 0.2 131 45
+ 60.1 1 2 tcp 40 ------- 0 1.3 2.0 84 46
- 60.1 1 2 tcp 40 ------- 0 1.3 2.0 84 46
+ 60.1 0 1 tcp 40 ------- 0 0.2 1.1 84 47
- 60.1 0 1 tcp 40 ------- 0 0.2 1.1 84 47
r 60.101213 1 2 tcp 40 ------- 0 1.3 2.0 84 46
r 60.101213 0 1 tcp 40 ------- 0 0.2 1.1 84 47
+ 68.242414 2 1 ack 59 ---A--- 0 2.0 1.3 156 48
- 68.242414 2 1 ack 59 ---A--- 0 2.0 1.3 156 48
r 68.243729 2 1 ack 59 ---A--- 0 2.0 1.3 156 48
+ 68.243868 1 2 tcp 59 ---A--- 0 1.3 2.0 84 49
- 68.243868 1 2 tcp 59 ---A--- 0 1.3 2.0 84 49
r 68.245182 1 2 tcp 59 ---A--- 0 1.3 2.0 84 49
+ 68.3 2 1 ack 40 ------- 0 2.0 1.3 175 50
- 68.3 2 1 ack 40 ------- 0 2.0 1.3 175 50
r 68.301213 2 1 ack 40 ------- 0 2.0 1.3 175 50
+ 68.398287 1 0 ack 59 ---A--- 0 1.1 0.2 158 51
- 68.398287 1 0 ack 59 ---A--- 0 1.1 0.2 158 51
r 68.399601 1 0 ack 59 ---A--- 0 1.1 0.2 158 51
+ 68.39974 0 1 tcp 59 ---A--- 0 0.2 1.1 84 52
- 68.39974 0 1 tcp 59 ---A--- 0 0.2 1.1 84 52
r 68.401055 0 1 tcp 59 ---A--- 0 0.2 1.1 84 52
+ 68.5 1 0 ack 40 ------- 0 1.1 0.2 177 53
- 68.5 1 0 ack 40 ------- 0 1.1 0.2 177 53
r 68.501213 1 0 ack 40 ------- 0 1.1 0.2 177 53
+ 120 2 1 ack 85 ---A--- 0 2.0 1.3 175 54
- 120 2 1 ack 85 ---A--- 0 2.0 1.3 175 54
r 120.001453 2 1 ack 85 ---A--- 0 2.0 1.3 175 54
+ 120.001453 1 0 ack 87 ---A--- 0 1.1 0.2 177 55
- 120.001453 1 0 ack 87 ---A--- 0 1.1 0.2 177 55
r 120.002917 1 0 ack 87 ---A--- 0 1.1 0.2 177 55
+ 120.1 1 2 tcp 40 ------- 0 1.3 2.0 103 56
- 120.1 1 2 tcp 40 ------- 0 1.3 2.0 103 56
+ 120.1 0 1 tcp 40 ------- 0 0.2 1.1 103 57
- 120.1 0 1 tcp 40 ------- 0 0.2 1.1 103 57
r 120.101213 1 2 tcp 40 ------- 0 1.3 2.0 103 56
r 120.101213 0 1 tcp 40 ------- 0 0.2 1.1 103 57
+ 128.242414 2 1 ack 59 ---A--- 0 2.0 1.3 220 58
- 128.242414 2 1 ack 59 ---A--- 0 2.0 1.3 220 58
r 128.243729 2 1 ack 59 ---A--- 0 2.0 1.3 220 58
+ 128.243868 1 2 tcp 59 ---A--- 0 1.3 2.0 103 59
- 128.243868 1 2 tcp 59 ---A--- 0 1.3 2.0 103 59
r 128.245182 1 2 tcp 59 ---A--- 0 1.3 2.0 103 59
+ 128.3 2 1 ack 40 ------- 0 2.0 1.3 239 60
- 128.3 2 1 ack 40 ------- 0 2.0 1.3 239 60
r 128.301213 2 1 ack 40 ------- 0 2.0 1.3 239 60
+ 128.398287 1 0 ack 59 ---A--- 0 1.1 0.2 224 61
- 128.398287 1 0 ack 59 ---A--- 0 1.1 0.2 224 61
r 128.399601 1 0 ack 59 ---A--- 0 1.1 0.2 224 61
+ 128.39974 0 1 tcp 59 ---A--- 0 0.2 1.1 103 62
- 128.39974 0 1 tcp 59 ---A--- 0 0.2 1.1 103 62
r 128.401055 0 1 tcp 59 ---A--- 0 0.2 1.1 103 62
+ 128.5 1 0 ack 40 ------- 0 1.1 0.2 243 63
- 128.5 1 0 ack 40 ------- 0 1.1 0.2 243 63
r 128.501213 1 0 ack 40 ------- 0 1.1 0.2 243 63
+ 180 2 1 ack 67 ---A--- 0 2.0 1.3 239 64
- 180 2 1 ack 67 ---A--- 0 2.0 1.3 239 64
r 180.001357 2 1 ack 67 ---A--- 0 2.0 1.3 239 64
+ 180.001357 1 0 ack 67 ---A--- 0 1.1 0.2 243 65
- 180.001357 1 0 ack 67 ---A--- 0 1.1 0.2 243 65
r 180.002715 1 0 ack 67 ---A--- 0 1.1 0.2 243 65
+ 180.1 1 2 tcp 40 ------- 0 1.3 2.0 122 66
- 180.1 1 2 tcp 40 ------- 0 1.3 2.0 122 66
+ 180.1 0 1 tcp 40 ------- 0 0.2 1.1 122 67
- 180.1 0 1 tcp 40 ------- 0 0.2 1.1 122 67
r 180.101213 1 2 tcp 40 ------- 0 1.3 2.0 122 66
r 180.101213 0 1 tcp 40 ------- 0 0.2 1.1 122 67
+ 188.242414 2 1 ack 59 ---A--- 0 2.0 1.3 266 68
- 188.242414 2 1 ack 59 ---A--- 0 2.0 1.3 266 68
r 188.243729 2 1 ack 59 ---A--- 0 2.0 1.3 266 68
+ 188.243868 1 2 tcp 59 ---A--- 0 1.3 2.0 122 69
- 188.243868 1 2 tcp 59 ---A--- 0 1.3 2.0 122 69
r 188.245182 1 2 tcp 59 ---A--- 0 1.3 2.0 122 69
+ 188.3 2 1 ack 40 ------- 0 2.0 1.3 285 70
- 188.3 2 1 ack 40 ------- 0 2.0 1.3 285 70
r 188.301213 2 1 ack 40 ------- 0 2.0 1.3 285 70
+ 188.398287 1 0 ack 59 ---A--- 0 1.1 0.2 270 71
- 188.398287 1 0 ack 59 ---A--- 0 1.1 0.2 270 71
r 188.399601 1 0 ack 59 ---A--- 0 1.1 0.2 270 71
+ 188.39974 0 1 tcp 59 ---A--- 0 0.2 1.1 122 72
- 188.39974 0 1 tcp 59 ---A--- 0 0.2 1.1 122 72
r 188.401055 0 1 tcp 59 ---A--- 0 0.2 1.1 122 72
+ 188.5 1 0 ack 40 ------- 0 1.1 0.2 289 73
- 188.5 1 0 ack 40 ------- 0 1.1 0.2 289 73
r 188.501213 1 0 ack 40 ------- 0 1.1 0.2 289 73
+ 240 2 1 ack 85 ---A--- 0 2.0 1.3 285 74
- 240 2 1 ack 85 ---A--- 0 2.0 1.3 285 74
r 240.001453 2 1 ack 85 ---A--- 0 2.0 1.3 285 74
+ 240.001453 1 0 ack 87 ---A--- 0 1.1 0.2 289 75
- 240.001453 1 0 ack 87 ---A--- 0 1.1 0.2 289 75
r 240.002917 1 0 ack 87 ---A--- 0 1.1 0.2 289 75
+ 240.1 1 2 tcp 40 ------- 0 1.3 2.0 141 76
- 240.1 1 2 tcp 40 ------- 0 1.3 2.0 141 76
+ 240.1 0 1 tcp 40 ------- 0 0.2 1.1 141 77
- 240.1 0 1 tcp 40 ------- 0 0.2 1.1 141 77
r 240.101213 1 2 tcp 40 ------- 0 1.3 2.0 141 76
r 240.101213 0 1 tcp 40 ------- 0 0.2 1.1 141 77
+ 248.242414 2 1 ack 59 ---A--- 0 2.0 1.3 330 78
- 248.242414 2 1 ack 59 ---A--- 0 2.0 1.3 330 78
r 248.243729 2 1 ack 59 ---A--- 0 2.0 1.3 330 78
+ 248.243868 1 2 tcp 59 ---A--- 0 1.3 2.0 141 79
- 248.243868 1 2 tcp 59 ---A--- 0 1.3 2.0 141 79
r 248.245182 1 2 tcp 59 ---A--- 0 1.3 2.0 141 79
+ 248.3 2 1 ack 40 ------- 0 2.0 1.3 349 80
- 248.3 2 1 ack 40 ------- 0 2.0 1.3 349 80
r 248.301213 2 1 ack 40 ------- 0 2.0 1.3 349 80
+ 248.398287 1 0 ack 59 ---A--- 0 1.1 0.2 336 81
- 248.398287 1 0 ack 59 ---A--- 0 1.1 0.2 336 81
r 248.399601 1 0 ack 59 ---A--- 0 1.1 0.2 336 81
+ 248.39974 0 1 tcp 59 ---A--- 0 0.2 1.1 141 82
- 248.39974 0 1 tcp 59 ---A--- 0 0.2 1.1 141 82
r 248.401055 0 1 tcp 59 ---A--- 0 0.2 1.1 141 82
+ 248.5 1 0 ack 40 ------- 0 1.1 0.2 355 83
- 248.5 1 0 ack 40 ------- 0 1.1 0.2 355 83
r 248.501213 1 0 ack 40 ------- 0 1.1 0.2 355 83
+ 300 2 1 ack 67 ---A--- 0 2.0 1.3 349 84
- 300 2 1 ack 67 ---A--- 0 2.0 1.3 349 84
r 300.001357 2 1 ack 67 ---A--- 0 2.0 1.3 349 84
+ 300.001357 1 0 ack 67 ---A--- 0 1.1 0.2 355 85
- 300.001357 1 0 ack 67 ---A--- 0 1.1 0.2 355 85
r 300.002715 1 0 ack 67 ---A--- 0 1.1 0.2 355 85
+ 300.1 1 2 tcp 40 ------- 0 1.3 2.0 160 86
- 300.1 1 2 tcp 40 ------- 0 1.3 2.0 160 86
+ 300.1 0 1 tcp 40 ------- 0 0.2 1.1 160 87
- 300.1 0 1 tcp 40 ------- 0 0.2 1.1 160 87
r 300.101213 1 2 tcp 40 ------- 0 1.3 2.0 160 86
r 300.101213 0 1 tcp 40 ------- 0 0.2 1.1 160 87
+ 308.242414 2 1 ack 59 ---A--- 0 2.0 1.3 376 88
- 308.242414 2 1 ack 59 ---A--- 0 2.0 1.3 376 88
r 308.243729 2 1 ack 59 ---A--- 0 2.0 1.3 376 88
+ 308.243868 1 2 tcp 59 ---A--- 0 1.3 2.0 160 89
- 308.243868 1 2 tcp 59 ---A--- 0 1.3 2.0 160 89
r 308.245182 1 2 tcp 59 ---A--- 0 1.3 2.0 160 89
+ 308.3 2 1 ack 40 ------- 0 2.0 1.3 395 90
- 308.3 2 1 ack 40 ------- 0 2.0 1.3 395 90
r 308.301213 2 1 ack 40 ------- 0 2.0 1.3 395 90
+ 308.398287 1 0 ack 59 ---A--- 0 1.1 0.2 382 91
- 308.398287 1 0 ack 59 ---A--- 0 1.1 0.2 382 91
r 308.399601 1 0 ack 59 ---A--- 0 1.1 0.2 382 91
+ 308.39974 0 1 tcp 59 ---A--- 0 0.2 1.1 160 92
- 308.39974 0 1 tcp 59 ---A--- 0 0.2 1.1 160 92
r 308.401055 0 1 tcp 59 ---A--- 0 0.2 1.1 160 92
+ 308.5 1 0 ack 40 ------- 0 1.1 0.2 401 93
- 308.5 1 0 ack 40 ------- 0 1.1 0.2 401 93
r 308.501213 1 0 ack 40 ------- 0 1.1 0.2 401 93
+ 360 2 1 ack 85 ---A--- 0 2.0 1.3 395 94
- 360 2 1 ack 85 ---A--- 0 2.0 1.3 395 94
r 360.001453 2 1 ack 85 ---A--- 0 2.0 1.3 395 94
+ 360.1 1 2 tcp 40 ------- 0 1.3 2.0 179 95
- 360.1 1 2 tcp 40 ------- 0 1.3 2.0 179 95
r 360.101213 1 2 tcp 40 ------- 0 1.3 2.0 179 95
+ 368.242414 2 1 ack 59 ---A--- 0 2.0 1.3 440 96
- 368.242414 2 1 ack 59 ---A--- 0 2.0 1.3 440 96
r 368.243729 2 1 ack 59 ---A--- 0 2.0 1.3 440 96
+ 368.243868 1 2 tcp 59 ---A--- 0 1.3 2.0 179 97
- 368.243868 1 2 tcp 59 ---A--- 0 1.3 2.0 179 97
r 368.245182 1 2 tcp 59 ---A--- 0 1.3 2.0 179 97
+ 368.3 2 1 ack 40 ------- 0 2.0 1.3 459 98
- 368.3 2 1 ack 40 ------- 0 2.0 1.3 459 98
r 368.301213 2 1 ack 40 ------- 0 2.0 1.3 459 98
+ 368.398287 1 0 ack 59 ---A--- 0 1.1 0.2 401 99
- 368.398287 1 0 ack 59 ---A--- 0 1.1 0.2 401 99
r 368.399601 1 0 ack 59 ---A--- 0 1.1 0.2 401 99
+ 368.39974 0 1 tcp 59 ---A--- 0 0.2 1.1 179 100
- 368.39974 0 1 tcp 59 ---A--- 0 0.2 1.1 179 100
r 368.401055 0 1 tcp 59 ---A--- 0 0.2 1.1 179 100
+ 368.5 1 0 ack 40 ------- 0 1.1 0.2 420 101
- 368.5 1 0 ack 40 ------- 0 1.1 0.2 420 101
r 368.501213 1 0 ack 40 ------- 0 1.1 0.2 420 101
+ 420 2 1 ack 67 ---A--- 0 2.0 1.3 459 102
- 420 2 1 ack 67 ---A--- 0 2.0 1.3 459 102
r 420.001357 2 1 ack 67 ---A--- 0 2.0 1.3 459 102
+ 420.1 1 2 tcp 40 ------- 0 1.3 2.0 198 103
- 420.1 1 2 tcp 40 ------- 0 1.3 2.0 198 103
r 420.101213 1 2 tcp 40 ------- 0 1.3 2.0 198 103
+ 428.242414 2 1 ack 59 ---A--- 0 2.0 1.3 486 104
- 428.242414 2 1 ack 59 ---A--- 0 2.0 1.3 486 104
r 428.243729 2 1 ack 59 ---A--- 0 2.0 1.3 486 104
+ 428.243868 1 2 tcp 59 ---A--- 0 1.3 2.0 198 105
- 428.243868 1 2 tcp 59 ---A--- 0 1.3 2.0 198 105
r 428.245182 1 2 tcp 59 ---A--- 0 1.3 2.0 198 105
+ 428.3 2 1 ack 40 ------- 0 2.0 1.3 505 106
- 428.3 2 1 ack 40 ------- 0 2.0 1.3 505 106
r 428.301213 2 1 ack 40 ------- 0 2.0 1.3 505 106
+ 428.398287 1 0 ack 59 ---A--- 0 1.1 0.2 420 107
- 428.398287 1 0 ack 59 ---A--- 0 1.1 0.2 420 107
r 428.399601 1 0 ack 59 ---A--- 0 1.1 0.2 420 107
+ 428.39974 0 1 tcp 59 ---A--- 0 0.2 1.1 198 108
- 428.39974 0 1 tcp 59 ---A--- 0 0.2 1.1 198 108
r 428.401055 0 1 tcp 59 ---A--- 0 0.2 1.1 198 108
+ 428.5 1 0 ack 40 ------- 0 1.1 0.2 439 109
- 428.5 1 0 ack 40 ------- 0 1.1 0.2 439 109
r 428.501213 1 0 ack 40 ------- 0 1.1 0.2 439 109
+ 488.242414 2 1 ack 59 ---A--- 0 2.0 1.3 505 110
- 488.242414 2 1 ack 59 ---A--- 0 2.0 1.3 505 110
r 488.243729 2 1 ack 59 ---A--- 0 2.0 1.3 505 110
+ 488.243868 1 2 tcp 59 ---A--- 0 1.3 2.0 217 111
- 488.243868 1 2 tcp 59 ---A--- 0 1.3 2.0 217 111
r 488.245182 1 2 tcp 59 ---A--- 0 1.3 2.0 217 111
+ 488.3 2 1 ack 40 ------- 0 2.0 1.3 524 112
- 488.3 2 1 ack 40 ------- 0 2.0 1.3 524 112
r 488.301213 2 1 ack 40 ------- 0 2.0 1.3 524 112
+ 488.398287 1 0 ack 59 ---A--- 0 1.1 0.2 439 113
- 488.398287 1 0 ack 59 ---A--- 0 1.1 0.2 439 113
r 488.399601 1 0 ack 59 ---A--- 0 1.1 0.2 439 113
+ 488.39974 0 1 tcp 59 ---A--- 0 0.2 1.1 217 114
- 488.39974 0 1 tcp 59 ---A--- 0 0.2 1.1 217 114
r 488.401055 0 1 tcp 59 ---A--- 0 0.2 1.1 217 114
+ 488.5 1 0 ack 40 ------- 0 1.1 0.2 458 115
- 488.5 1 0 ack 40 ------- 0 1.1 0.2 458 115
r 488.501213 1 0 ack 40 ------- 0 1.1 0.2 458 115
+ 501 2 1 ack 85 ---A--- 0 2.0 1.3 524 116
- 501 2 1 ack 85 ---A--- 0 2.0 1.3 524 116
r 501.001453 2 1 ack 85 ---A--- 0 2.0 1.3 524 116
+ 501.001453 1 0 ack 87 ---A--- 0 1.1 0.2 458 117
- 501.001453 1 0 ack 87 ---A--- 0 1.1 0.2 458 117
r 501.002917 1 0 ack 87 ---A--- 0 1.1 0.2 458 117
+ 501.1 1 2 tcp 40 ------- 0 1.3 2.0 236 118
- 501.1 1 2 tcp 40 ------- 0 1.3 2.0 236 118
+ 501.1 0 1 tcp 40 ------- 0 0.2 1.1 236 119
- 501.1 0 1 tcp 40 ------- 0 0.2 1.1 236 119
r 501.101213 1 2 tcp 40 ------- 0 1.3 2.0 236 118
r 501.101213 0 1 tcp 40 ------- 0 0.2 1.1 236 119
+ 548.242414 2 1 ack 59 ---A--- 0 2.0 1.3 569 120
- 548.242414 2 1 ack 59 ---A--- 0 2.0 1.3 569 120
r 548.243729 2 1 ack 59 ---A--- 0 2.0 1.3 569 120
+ 548.243868 1 2 tcp 59 ---A--- 0 1.3 2.0 236 121
- 548.243868 1 2 tcp 59 ---A--- 0 1.3 2.0 236 121
r 548.245182 1 2 tcp 59 ---A--- 0 1.3 2.0 236 121
+ 548.3 2 1 ack 40 ------- 0 2.0 1.3 588 122
- 548.3 2 1 ack 40 ------- 0 2.0 1.3 588 122
r 548.301213 2 1 ack 40 ------- 0 2.0 1.3 588 122
+ 548.398287 1 0 ack 59 ---A--- 0 1.1 0.2 505 123
- 548.398287 1 0 ack 59 ---A--- 0 1.1 0.2 505 123
r 548.399601 1 0 ack 59 ---A--- 0 1.1 0.2 505 123
+ 548.39974 0 1 tcp 59 ---A--- 0 0.2 1.1 236 124
- 548.39974 0 1 tcp 59 ---A--- 0 0.2 1.1 236 124
r 548.401055 0 1 tcp 59 ---A--- 0 0.2 1.1 236 124
+ 548.5 1 0 ack 40 ------- 0 1.1 0.2 524 125
- 548.5 1 0 ack 40 ------- 0 1.1 0.2 524 125
r 548.501213 1 0 ack 40 ------- 0 1.1 0.2 524 125
+ 608.242414 2 1 ack 59 ---A--- 0 2.0 1.3 588 126
- 608.242414 2 1 ack 59 ---A--- 0 2.0 1.3 588 126
r 608.243729 2 1 ack 59 ---A--- 0 2.0 1.3 588 126
+ 608.243868 1 2 tcp 59 ---A--- 0 1.3 2.0 255 127
- 608.243868 1 2 tcp 59 ---A--- 0 1.3 2.0 255 127
r 608.245182 1 2 tcp 59 ---A--- 0 1.3 2.0 255 127
+ 608.3 2 1 ack 40 ------- 0 2.0 1.3 607 128
- 608.3 2 1 ack 40 ------- 0 2.0 1.3 607 128
r 608.301213 2 1 ack 40 ------- 0 2.0 1.3 607 128
+ 608.398287 1 0 ack 59 ---A--- 0 1.1 0.2 524 129
- 608.398287 1 0 ack 59 ---A--- 0 1.1 0.2 524 129
r 608.399601 1 0 ack 59 ---A--- 0 1.1 0.2 524 129
+ 608.39974 0 1 tcp 59 ---A--- 0 0.2 1.1 255 130
- 608.39974 0 1 tcp 59 ---A--- 0 0.2 1.1 255 130
r 608.401055 0 1 tcp 59 ---A--- 0 0.2 1.1 255 130
+ 608.5 1 0 ack 40 ------- 0 1.1 0.2 543 131
- 608.5 1 0 ack 40 ------- 0 1.1 0.2 543 131
r 608.501213 1 0 ack 40 ------- 0 1.1 0.2 543 131
+ 668.242414 2 1 ack 59 ---A--- 0 2.0 1.3 607 132
- 668.242414 2 1 ack 59 ---A--- 0 2.0 1.3 607 132
r 668.243729 2 1 ack 59 ---A--- 0 2.0 1.3 607 132
+ 668.243868 1 2 tcp 59 ---A--- 0 1.3 2.0 274 133
- 668.243868 1 2 tcp 59 ---A--- 0 1.3 2.0 274 133
r 668.245182 1 2 tcp 59 ---A--- 0 1.3 2.0 274 133
+ 668.3 2 1 ack 40 ------- 0 2.0 1.3 626 134
- 668.3 2 1 ack 40 ------- 0 2.0 1.3 626 134
r 668.301213 2 1 ack 40 ------- 0 2.0 1.3 626 134
+ 668.398287 1 0 ack 59 ---A--- 0 1.1 0.2 543 135
- 668.398287 1 0 ack 59 ---A--- 0 1.1 0.2 543 135
r 668.399601 1 0 ack 59 ---A--- 0 1.1 0.2 543 135
+ 668.39974 0 1 tcp 59 ---A--- 0 0.2 1.1 274 136
- 668.39974 0 1 tcp 59 ---A--- 0 0.2 1.1 274 136
r 668.401055 0 1 tcp 59 ---A--- 0 0.2 1.1 274 136
+ 668.5 1 0 ack 40 ------- 0 1.1 0.2 562 137
- 668.5 1 0 ack 40 ------- 0 1.1 0.2 562 137
r 668.501213 1 0 ack 40 ------- 0 1.1 0.2 562 137
+ 728.242414 2 1 ack 59 ---A--- 0 2.0 1.3 626 138
- 728.242414 2 1 ack 59 ---A--- 0 2.0 1.3 626 138
r 728.243729 2 1 ack 59 ---A--- 0 2.0 1.3 626 138
+ 728.243868 1 2 tcp 59 ---A--- 0 1.3 2.0 293 139
- 728.243868 1 2 tcp 59 ---A--- 0 1.3 2.0 293 139
r 728.245182 1 2 tcp 59 ---A--- 0 1.3 2.0 293 139
+ 728.3 2 1 ack 40 ------- 0 2.0 1.3 645 140
- 728.3 2 1 ack 40 ------- 0 2.0 1.3 645 140
r 728.301213 2 1 ack 40 ------- 0 2.0 1.3 645 140
+ 728.398287 1 0 ack 59 ---A--- 0 1.1 0.2 562 141
- 728.398287 1 0 ack 59 ---A--- 0 1.1 0.2 562 141
r 728.399601 1 0 ack 59 ---A--- 0 1.1 0.2 562 141
+ 728.39974 0 1 tcp 59 ---A--- 0 0.2 1.1 293 142
- 728.39974 0 1 tcp 59 ---A--- 0 0.2 1.1 293 142
r 728.401055 0 1 tcp 59 ---A--- 0 0.2 1.1 293 142
+ 728.5 1 0 ack 40 ------- 0 1.1 0.2 581 143
- 728.5 1 0 ack 40 ------- 0 1.1 0.2 581 143
r 728.501213 1 0 ack 40 ------- 0 1.1 0.2 581 143
+ 788.242414 2 1 ack 59 ---A--- 0 2.0 1.3 645 144
- 788.242414 2 1 ack 59 ---A--- 0 2.0 1.3 645 144
r 788.243729 2 1 ack 59 ---A--- 0 2.0 1.3 645 144
+ 788.243868 1 2 tcp 59 ---A--- 0 1.3 2.0 312 145
- 788.243868 1 2 tcp 59 ---A--- 0 1.3 2.0 312 145
r 788.245182 1 2 tcp 59 ---A--- 0 1.3 2.0 312 145
+ 788.3 2 1 ack 40 ------- 0 2.0 1.3 664 146
- 788.3 2 1 ack 40 ------- 0 2.0 1.3 664 146
r 788.301213 2 1 ack 40 ------- 0 2.0 1.3 664 146
+ 788.398287 1 0 ack 59 ---A--- 0 1.1 0.2 581 147
- 788.398287 1 0 ack 59 ---A--- 0 1.1 0.2 581 147
r 788.399601 1 0 ack 59 ---A--- 0 1.1 0.2 581 147
+ 788.39974 0 1 tcp 59 ---A--- 0 0.2 1.1 312 148
- 788.39974 0 1 tcp 59 ---A--- 0 0.2 1.1 312 148
r 788.401055 0 1 tcp 59 ---A--- 0 0.2 1.1 312 148
+ 788.5 1 0 ack 40 ------- 0 1.1 0.2 600 149
- 788.5 1 0 ack 40 ------- 0 1.1 0.2 600 149
r 788.501213 1 0 ack 40 ------- 0 1.1 0.2 600 149
+ 848.242414 2 1 ack 59 ---A--- 0 2.0 1.3 664 150
- 848.242414 2 1 ack 59 ---A--- 0 2.0 1.3 664 150
r 848.243729 2 1 ack 59 ---A--- 0 2.0 1.3 664 150
+ 848.243868 1 2 tcp 59 ---A--- 0 1.3 2.0 331 151
- 848.243868 1 2 tcp 59 ---A--- 0 1.3 2.0 331 151
r 848.245182 1 2 tcp 59 ---A--- 0 1.3 2.0 331 151
+ 848.3 2 1 ack 40 ------- 0 2.0 1.3 683 152
- 848.3 2 1 ack 40 ------- 0 2.0 1.3 683 152
r 848.301213 2 1 ack 40 ------- 0 2.0 1.3 683 152
+ 848.398287 1 0 ack 59 ---A--- 0 1.1 0.2 600 153
- 848.398287 1 0 ack 59 ---A--- 0 1.1 0.2 600 153
r 848.399601 1 0 ack 59 ---A--- 0 1.1 0.2 600 153
+ 848.39974 0 1 tcp 59 ---A--- 0 0.2 1.1 331 154
- 848.39974 0 1 tcp 59 ---A--- 0 0.2 1.1 331 154
r 848.401055 0 1 tcp 59 ---A--- 0 0.2 1.1 331 154
+ 848.5 1 0 ack 40 ------- 0 1.1 0.2 619 155
- 848.5 1 0 ack 40 ------- 0 1.1 0.2 619 155
r 848.501213 1 0 ack 40 ------- 0 1.1 0.2 619 155
+ 908.242414 2 1 ack 59 ---A--- 0 2.0 1.3 683 156
- 908.242414 2 1 ack 59 ---A--- 0 2.0 1.3 683 156
r 908.243729 2 1 ack 59 ---A--- 0 2.0 1.3 683 156
+ 908.243868 1 2 tcp 59 ---A--- 0 1.3 2.0 350 157
- 908.243868 1 2 tcp 59 ---A--- 0 1.3 2.0 350 157
r 908.245182 1 2 tcp 59 ---A--- 0 1.3 2.0 350 157
+ 908.3 2 1 ack 40 ------- 0 2.0 1.3 702 158
- 908.3 2 1 ack 40 ------- 0 2.0 1.3 702 158
r 908.301213 2 1 ack 40 ------- 0 2.0 1.3 702 158
+ 908.398287 1 0 ack 59 ---A--- 0 1.1 0.2 619 159
- 908.398287 1 0 ack 59 ---A--- 0 1.1 0.2 619 159
r 908.399601 1 0 ack 59 ---A--- 0 1.1 0.2 619 159
+ 908.39974 0 1 tcp 59 ---A--- 0 0.2 1.1 350 160
- 908.39974 0 1 tcp 59 ---A--- 0 0.2 1.1 350 160
r 908.401055 0 1 tcp 59 ---A--- 0 0.2 1.1 350 160
+ 908.5 1 0 ack 40 ------- 0 1.1 0.2 638 161
- 908.5 1 0 ack 40 ------- 0 1.1 0.2 638 161
r 908.501213 1 0 ack 40 ------- 0 1.1 0.2 638 161
+ 968.242414 2 1 ack 59 ---A--- 0 2.0 1.3 702 162
- 968.242414 2 1 ack 59 ---A--- 0 2.0 1.3 702 162
r 968.243729 2 1 ack 59 ---A--- 0 2.0 1.3 702 162
+ 968.243868 1 2 tcp 59 ---A--- 0 1.3 2.0 369 163
- 968.243868 1 2 tcp 59 ---A--- 0 1.3 2.0 369 163
r 968.245182 1 2 tcp 59 ---A--- 0 1.3 2.0 369 163
+ 968.3 2 1 ack 40 ------- 0 2.0 1.3 721 164
- 968.3 2 1 ack 40 ------- 0 2.0 1.3 721 164
r 968.301213 2 1 ack 40 ------- 0 2.0 1.3 721 164
+ 968.398287 1 0 ack 59 ---A--- 0 1.1 0.2 638 165
- 968.398287 1 0 ack 59 ---A--- 0 1.1 0.2 638 165
r 968.399601 1 0 ack 59 ---A--- 0 1.1 0.2 638 165
+ 968.39974 0 1 tcp 59 ---A--- 0 0.2 1.1 369 166
- 968.39974 0 1 tcp 59 ---A--- 0 0.2 1.1 369 166
r 968.401055 0 1 tcp 59 ---A--- 0 0.2 1.1 369 166
+ 968.5 1 0 ack 40 ------- 0 1.1 0.2 657 167
- 968.5 1 0 ack 40 ------- 0 1.1 0.2 657 167
r 968.501213 1 0 ack 40 ------- 0 1.1 0.2 657 167
+ 1028.242414 2 1 ack 59 ---A--- 0 2.0 1.3 721 168
- 1028.242414 2 1 ack 59 ---A--- 0 2.0 1.3 721 168
r 1028.243729 2 1 ack 59 ---A--- 0 2.0 1.3 721 168
+ 1028.243868 1 2 tcp 59 ---A--- 0 1.3 2.0 388 169
- 1028.243868 1 2 tcp 59 ---A--- 0 1.3 2.0 388 169
r 1028.245182 1 2 tcp 59 ---A--- 0 1.3 2.0 388 169
+ 1028.3 2 1 ack 40 ------- 0 2.0 1.3 740 170
- 1028.3 2 1 ack 40 ------- 0 2.0 1.3 740 170
r 1028.301213 2 1 ack 40 ------- 0 2.0 1.3 740 170
+ 1028.398287 1 0 ack 59 ---A--- 0 1.1 0.2 657 171
- 1028.398287 1 0 ack 59 ---A--- 0 1.1 0.2 657 171
r 1028.399601 1 0 ack 59 ---A--- 0 1.1 0.2 657 171
+ 1028.39974 0 1 tcp 59 ---A--- 0 0.2 1.1 388 172
- 1028.39974 0 1 tcp 59 ---A--- 0 0.2 1.1 388 172
r 1028.401055 0 1 tcp 59 ---A--- 0 0.2 1.1 388 172
+ 1028.5 1 0 ack 40 ------- 0 1.1 0.2 676 173
- 1028.5 1 0 ack 40 ------- 0 1.1 0.2 676 173
r 1028.501213 1 0 ack 40 ------- 0 1.1 0.2 676 173
+ 1088.242414 2 1 ack 59 ---A--- 0 2.0 1.3 740 174
- 1088.242414 2 1 ack 59 ---A--- 0 2.0 1.3 740 174
r 1088.243729 2 1 ack 59 ---A--- 0 2.0 1.3 740 174
+ 1088.243868 1 2 tcp 59 ---A--- 0 1.3 2.0 407 175
- 1088.243868 1 2 tcp 59 ---A--- 0 1.3 2.0 407 175
r 1088.245182 1 2 tcp 59 ---A--- 0 1.3 2.0 407 175
+ 1088.3 2 1 ack 40 ------- 0 2.0 1.3 759 176
- 1088.3 2 1 ack 40 ------- 0 2.0 1.3 759 176
r 1088.301213 2 1 ack 40 ------- 0 2.0 1.3 759 176
+ 1088.398287 1 0 ack 59 ---A--- 0 1.1 0.2 676 177
- 1088.398287 1 0 ack 59 ---A--- 0 1.1 0.2 676 177
r 1088.399601 1 0 ack 59 ---A--- 0 1.1 0.2 676 177
+ 1088.39974 0 1 tcp 59 ---A--- 0 0.2 1.1 407 178
- 1088.39974 0 1 tcp 59 ---A--- 0 0.2 1.1 407 178
r 1088.401055 0 1 tcp 59 ---A--- 0 0.2 1.1 407 178
+ 1088.5 1 0 ack 40 ------- 0 1.1 0.2 695 179
- 1088.5 1 0 ack 40 ------- 0 1.1 0.2 695 179
r 1088.501213 1 0 ack 40 ------- 0 1.1 0.2 695 179
+ 1148.242414 2 1 ack 59 ---A--- 0 2.0 1.3 759 180
- 1148.242414 2 1 ack 59 ---A--- 0 2.0 1.3 759 180
r 1148.243729 2 1 ack 59 ---A--- 0 2.0 1.3 759 180
+ 1148.243868 1 2 tcp 59 ---A--- 0 1.3 2.0 426 181
- 1148.243868 1 2 tcp 59 ---A--- 0 1.3 2.0 426 181
r 1148.245182 1 2 tcp 59 ---A--- 0 1.3 2.0 426 181
+ 1148.3 2 1 ack 40 ------- 0 2.0 1.3 778 182
- 1148.3 2 1 ack 40 ------- 0 2.0 1.3 778 182
r 1148.301213 2 1 ack 40 ------- 0 2.0 1.3 778 182
+ 1148.398287 1 0 ack 59 ---A--- 0 1.1 0.2 695 183
- 1148.398287 1 0 ack 59 ---A--- 0 1.1 0.2 695 183
r 1148.399601 1 0 ack 59 ---A--- 0 1.1 0.2 695 183
+ 1148.39974 0 1 tcp 59 ---A--- 0 0.2 1.1 426 184
- 1148.39974 0 1 tcp 59 ---A--- 0 0.2 1.1 426 184
r 1148.401055 0 1 tcp 59 ---A--- 0 0.2 1.1 426 184
+ 1148.5 1 0 ack 40 ------- 0 1.1 0.2 714 185
- 1148.5 1 0 ack 40 ------- 0 1.1 0.2 714 185
r 1148.501213 1 0 ack 40 ------- 0 1.1 0.2 714 185
+ 1208.242414 2 1 ack 59 ---A--- 0 2.0 1.3 778 186
- 1208.242414 2 1 ack 59 ---A--- 0 2.0 1.3 778 186
r 1208.243729 2 1 ack 59 ---A--- 0 2.0 1.3 778 186
+ 1208.243868 1 2 tcp 59 ---A--- 0 1.3 2.0 445 187
- 1208.243868 1 2 tcp 59 ---A--- 0 1.3 2.0 445 187
r 1208.245182 1 2 tcp 59 ---A--- 0 1.3 2.0 445 187
+ 1208.3 2 1 ack 40 ------- 0 2.0 1.3 797 188
- 1208.3 2 1 ack 40 ------- 0 2.0 1.3 797 188
r 1208.301213 2 1 ack 40 ------- 0 2.0 1.3 797 188
+ 1208.398287 1 0 ack 59 ---A--- 0 1.1 0.2 714 189
- 1208.398287 1 0 ack 59 ---A--- 0 1.1 0.2 714 189
r 1208.399601 1 0 ack 59 ---A--- 0 1.1 0.2 714 189
+ 1208.39974 0 1 tcp 59 ---A--- 0 0.2 1.1 445 190
- 1208.39974 0 1 tcp 59 ---A--- 0 0.2 1.1 445 190
r 1208.401055 0 1 tcp 59 ---A--- 0 0.2 1.1 445 190
+ 1208.5 1 0 ack 40 ------- 0 1.1 0.2 733 191
- 1208.5 1 0 ack 40 ------- 0 1.1 0.2 733 191
r 1208.501213 1 0 ack 40 ------- 0 1.1 0.2 733 191
+ 1268.242414 2 1 ack 59 ---A--- 0 2.0 1.3 797 192
- 1268.242414 2 1 ack 59 ---A--- 0 2.0 1.3 797 192
r 1268.243729 2 1 ack 59 ---A--- 0 2.0 1.3 797 192
+ 1268.243868 1 2 tcp 59 ---A--- 0 1.3 2.0 464 193
- 1268.243868 1 2 tcp 59 ---A--- 0 1.3 2.0 464 193
r 1268.245182 1 2 tcp 59 ---A--- 0 1.3 2.0 464 193
+ 1268.3 2 1 ack 40 ------- 0 2.0 1.3 816 194
- 1268.3 2 1 ack 40 ------- 0 2.0 1.3 816 194
r 1268.301213 2 1 ack 40 ------- 0 2.0 1.3 816 194
+ 1268.398287 1 0 ack 59 ---A--- 0 1.1 0.2 733 195
- 1268.398287 1 0 ack 59 ---A--- 0 1.1 0.2 733 195
r 1268.399601 1 0 ack 59 ---A--- 0 1.1 0.2 733 195
+ 1268.39974 0 1 tcp 59 ---A--- 0 0.2 1.1 464 196
- 1268.39974 0 1 tcp 59 ---A--- 0 0.2 1.1 464 196
r 1268.401055 0 1 tcp 59 ---A--- 0 0.2 1.1 464 196
+ 1268.5 1 0 ack 40 ------- 0 1.1 0.2 752 197
- 1268.5 1 0 ack 40 ------- 0 1.1 0.2 752 197
r 1268.501213 1 0 ack 40 ------- 0 1.1 0.2 752 197
+ 1328.242414 2 1 ack 59 ---A--- 0 2.0 1.3 816 198
- 1328.242414 2 1 ack 59 ---A--- 0 2.0 1.3 816 198
r 1328.243729 2 1 ack 59 ---A--- 0 2.0 1.3 816 198
+ 1328.243868 1 2 tcp 59 ---A--- 0 1.3 2.0 483 199
- 1328.243868 1 2 tcp 59 ---A--- 0 1.3 2.0 483 199
r 1328.245182 1 2 tcp 59 ---A--- 0 1.3 2.0 483 199
+ 1328.3 2 1 ack 40 ------- 0 2.0 1.3 835 200
- 1328.3 2 1 ack 40 ------- 0 2.0 1.3 835 200
r 1328.301213 2 1 ack 40 ------- 0 2.0 1.3 835 200
+ 1328.398287 1 0 ack 59 ---A--- 0 1.1 0.2 752 201
- 1328.398287 1 0 ack 59 ---A--- 0 1.1 0.2 752 201
r 1328.399601 1 0 ack 59 ---A--- 0 1.1 0.2 752 201
+ 1328.39974 0 1 tcp 59 ---A--- 0 0.2 1.1 483 202
- 1328.39974 0 1 tcp 59 ---A--- 0 0.2 1.1 483 202
r 1328.401055 0 1 tcp 59 ---A--- 0 0.2 1.1 483 202
+ 1328.5 1 0 ack 40 ------- 0 1.1 0.2 771 203
- 1328.5 1 0 ack 40 ------- 0 1.1 0.2 771 203
r 1328.501213 1 0 ack 40 ------- 0 1.1 0.2 771 203
+ 1388.242414 2 1 ack 59 ---A--- 0 2.0 1.3 835 204
- 1388.242414 2 1 ack 59 ---A--- 0 2.0 1.3 835 204
r 1388.243729 2 1 ack 59 ---A--- 0 2.0 1.3 835 204
+ 1388.243868 1 2 tcp 59 ---A--- 0 1.3 2.0 502 205
- 1388.243868 1 2 tcp 59 ---A--- 0 1.3 2.0 502 205
r 1388.245182 1 2 tcp 59 ---A--- 0 1.3 2.0 502 205
+ 1388.3 2 1 ack 40 ------- 0 2.0 1.3 854 206
- 1388.3 2 1 ack 40 ------- 0 2.0 1.3 854 206
r 1388.301213 2 1 ack 40 ------- 0 2.0 1.3 854 206
+ 1388.398287 1 0 ack 59 ---A--- 0 1.1 0.2 771 207
- 1388.398287 1 0 ack 59 ---A--- 0 1.1 0.2 771 207
r 1388.399601 1 0 ack 59 ---A--- 0 1.1 0.2 771 207
+ 1388.39974 0 1 tcp 59 ---A--- 0 0.2 1.1 502 208
- 1388.39974 0 1 tcp 59 ---A--- 0 0.2 1.1 502 208
r 1388.401055 0 1 tcp 59 ---A--- 0 0.2 1.1 502 208
+ 1388.5 1 0 ack 40 ------- 0 1.1 0.2 790 209
- 1388.5 1 0 ack 40 ------- 0 1.1 0.2 790 209
r 1388.501213 1 0 ack 40 ------- 0 1.1 0.2 790 209