+ 5.425972 0 1 tcp 40 ------- 0 0.1 1.0 0 0
- 5.425972 0 1 tcp 40 ------- 0 0.1 1.0 0 0
r 5.427186 0 1 tcp 40 ------- 0 0.1 1.0 0 0
+ 5.427186 1 0 ack 40 ------- 0 1.0 0.1 0 1
- 5.427186 1 0 ack 40 ------- 0 1.0 0.1 0 1
r 5.428399 1 0 ack 40 ------- 0 1.0 0.1 0 1
+ 5.428399 0 1 tcp 40 ------- 0 0.1 1.0 1 2
- 5.428399 0 1 tcp 40 ------- 0 0.1 1.0 1 2
+ 5.428399 0 1 tcp 40 ------- 0 0.1 1.0 1 3
+ 5.428399 0 1 tcp 85 ------- 0 0.1 1.0 1 4
- 5.428612 0 1 tcp 40 ------- 0 0.1 1.0 1 3
- 5.428826 0 1 tcp 85 ------- 0 0.1 1.0 1 4
r 5.429612 0 1 tcp 40 ------- 0 0.1 1.0 1 2
+ 5.429612 1 0 ack 40 ------- 0 1.0 0.1 1 5
- 5.429612 1 0 ack 40 ------- 0 1.0 0.1 1 5
r 5.429826 0 1 tcp 40 ------- 0 0.1 1.0 1 3
r 5.430279 0 1 tcp 85 ------- 0 0.1 1.0 1 4
r 5.430826 1 0 ack 40 ------- 0 1.0 0.1 1 5
+ 5.430826 0 1 tcp 40 ------- 0 0.1 1.0 46 6
- 5.430826 0 1 tcp 40 ------- 0 0.1 1.0 46 6
r 5.432039 0 1 tcp 40 ------- 0 0.1 1.0 46 6
+ 5.628399 0 1 tcp 85 ------- 0 0.1 1.0 1 7
- 5.628399 0 1 tcp 85 ------- 0 0.1 1.0 1 7
r 5.629852 0 1 tcp 85 ------- 0 0.1 1.0 1 7
+ 5.629852 1 0 ack 40 ------- 0 1.0 0.1 2 8
- 5.629852 1 0 ack 40 ------- 0 1.0 0.1 2 8
r 5.631066 1 0 ack 40 ------- 0 1.0 0.1 2 8
+ 5.631066 0 1 tcp 40 ------- 0 0.1 1.0 46 9
- 5.631066 0 1 tcp 40 ------- 0 0.1 1.0 46 9
r 5.632279 0 1 tcp 40 ------- 0 0.1 1.0 46 9
+ 5.632279 1 0 ack 40 ------- 0 1.0 0.1 2 10
- 5.632279 1 0 ack 40 ------- 0 1.0 0.1 2 10
r 5.633492 1 0 ack 40 ------- 0 1.0 0.1 2 10
+ 7.981944 1 0 tcp 40 ------- 0 1.2 0.0 0 11
- 7.981944 1 0 tcp 40 ------- 0 1.2 0.0 0 11
r 7.983157 1 0 tcp 40 ------- 0 1.2 0.0 0 11
+ 7.983157 0 1 ack 40 ------- 0 0.0 1.2 0 12
- 7.983157 0 1 ack 40 ------- 0 0.0 1.2 0 12
r 7.98437 0 1 ack 40 ------- 0 0.0 1.2 0 12
+ 7.98437 1 0 tcp 40 ------- 0 1.2 0.0 1 13
- 7.98437 1 0 tcp 40 ------- 0 1.2 0.0 1 13
+ 7.98437 1 0 tcp 40 ------- 0 1.2 0.0 1 14
+ 7.98437 1 0 tcp 85 ------- 0 1.2 0.0 1 15
- 7.984584 1 0 tcp 40 ------- 0 1.2 0.0 1 14
- 7.984797 1 0 tcp 85 ------- 0 1.2 0.0 1 15
r 7.985584 1 0 tcp 40 ------- 0 1.2 0.0 1 13
r 7.985797 1 0 tcp 40 ------- 0 1.2 0.0 1 14
r 7.98625 1 0 tcp 85 ------- 0 1.2 0.0 1 15
+ 7.98625 0 1 ack 85 ------- 0 0.0 1.2 1 16
- 7.98625 0 1 ack 85 ------- 0 0.0 1.2 1 16
r 7.987704 0 1 ack 85 ------- 0 0.0 1.2 1 16
+ 7.987704 1 0 tcp 59 ------- 0 1.2 0.0 46 17
- 7.987704 1 0 tcp 59 ------- 0 1.2 0.0 46 17
r 7.989018 1 0 tcp 59 ------- 0 1.2 0.0 46 17
+ 7.989018 0 1 ack 59 ------- 0 0.0 1.2 46 18
- 7.989018 0 1 ack 59 ------- 0 0.0 1.2 46 18
r 7.990333 0 1 ack 59 ------- 0 0.0 1.2 46 18
+ 7.990333 1 0 tcp 59 ------- 0 1.2 0.0 65 19
- 7.990333 1 0 tcp 59 ------- 0 1.2 0.0 65 19
r 7.991648 1 0 tcp 59 ------- 0 1.2 0.0 65 19
+ 7.991648 0 1 ack 194 ------- 0 0.0 1.2 65 20
- 7.991648 0 1 ack 194 ------- 0 0.0 1.2 65 20
r 7.993682 0 1 ack 194 ------- 0 0.0 1.2 65 20
+ 8 1 0 tcp 40 ------- 0 1.2 0.0 84 21
- 8 1 0 tcp 40 ------- 0 1.2 0.0 84 21
r 8.001213 1 0 tcp 40 ------- 0 1.2 0.0 84 21
+ 51 1 0 tcp 40 ------- 0 1.2 0.0 84 22
- 51 1 0 tcp 40 ------- 0 1.2 0.0 84 22
r 51.001213 1 0 tcp 40 ------- 0 1.2 0.0 84 22
+ 51.001213 0 1 ack 40 ------- 0 0.0 1.2 219 23
- 51.001213 0 1 ack 40 ------- 0 0.0 1.2 219 23
+ 51.001213 0 1 ack 40 ------- 0 0.0 1.2 219 24
- 51.001427 0 1 ack 40 ------- 0 0.0 1.2 219 24
r 51.002427 0 1 ack 40 ------- 0 0.0 1.2 219 23
r 51.00264 0 1 ack 40 ------- 0 0.0 1.2 219 24
+ 51.00264 1 0 tcp 40 ------- 0 1.2 0.0 85 25
- 51.00264 1 0 tcp 40 ------- 0 1.2 0.0 85 25
r 51.003853 1 0 tcp 40 ------- 0 1.2 0.0 85 25
+ 56.362576 1 0 tcp 40 ------- 0 1.3 0.2 0 26
- 56.362576 1 0 tcp 40 ------- 0 1.3 0.2 0 26
r 56.363789 1 0 tcp 40 ------- 0 1.3 0.2 0 26
+ 56.363789 0 1 ack 40 ------- 0 0.2 1.3 0 27
- 56.363789 0 1 ack 40 ------- 0 0.2 1.3 0 27
r 56.365003 0 1 ack 40 ------- 0 0.2 1.3 0 27
+ 56.365003 1 0 tcp 40 ------- 0 1.3 0.2 1 28
- 56.365003 1 0 tcp 40 ------- 0 1.3 0.2 1 28
+ 56.365003 1 0 tcp 40 ------- 0 1.3 0.2 1 29
+ 56.365003 1 0 tcp 85 ------- 0 1.3 0.2 1 30
- 56.365216 1 0 tcp 40 ------- 0 1.3 0.2 1 29
- 56.365429 1 0 tcp 85 ------- 0 1.3 0.2 1 30
r 56.366216 1 0 tcp 40 ------- 0 1.3 0.2 1 28
+ 56.366216 0 1 ack 40 ------- 0 0.2 1.3 1 31
- 56.366216 0 1 ack 40 ------- 0 0.2 1.3 1 31
r 56.366429 1 0 tcp 40 ------- 0 1.3 0.2 1 29
r 56.366883 1 0 tcp 85 ------- 0 1.3 0.2 1 30
r 56.367429 0 1 ack 40 ------- 0 0.2 1.3 1 31
+ 56.367429 1 0 tcp 40 ------- 0 1.3 0.2 46 32
- 56.367429 1 0 tcp 40 ------- 0 1.3 0.2 46 32
r 56.368643 1 0 tcp 40 ------- 0 1.3 0.2 46 32
+ 56.565003 1 0 tcp 85 ------- 0 1.3 0.2 1 33
- 56.565003 1 0 tcp 85 ------- 0 1.3 0.2 1 33
r 56.566456 1 0 tcp 85 ------- 0 1.3 0.2 1 33
+ 56.566456 0 1 ack 40 ------- 0 0.2 1.3 2 34
- 56.566456 0 1 ack 40 ------- 0 0.2 1.3 2 34
r 56.567669 0 1 ack 40 ------- 0 0.2 1.3 2 34
+ 56.567669 1 0 tcp 40 ------- 0 1.3 0.2 46 35
- 56.567669 1 0 tcp 40 ------- 0 1.3 0.2 46 35
r 56.568883 1 0 tcp 40 ------- 0 1.3 0.2 46 35
+ 56.568883 0 1 ack 40 ------- 0 0.2 1.3 2 36
- 56.568883 0 1 ack 40 ------- 0 0.2 1.3 2 36
r 56.570096 0 1 ack 40 ------- 0 0.2 1.3 2 36
+ 57.340058 0 1 tcp 40 ------- 0 0.4 1.1 0 37
- 57.340058 0 1 tcp 40 ------- 0 0.4 1.1 0 37
r 57.341271 0 1 tcp 40 ------- 0 0.4 1.1 0 37
+ 57.341271 1 0 ack 40 ------- 0 1.1 0.4 0 38
- 57.341271 1 0 ack 40 ------- 0 1.1 0.4 0 38
r 57.342485 1 0 ack 40 ------- 0 1.1 0.4 0 38
+ 57.342485 0 1 tcp 40 ------- 0 0.4 1.1 1 39
- 57.342485 0 1 tcp 40 ------- 0 0.4 1.1 1 39
+ 57.342485 0 1 tcp 40 ------- 0 0.4 1.1 1 40
+ 57.342485 0 1 tcp 85 ------- 0 0.4 1.1 1 41
- 57.342698 0 1 tcp 40 ------- 0 0.4 1.1 1 40
- 57.342911 0 1 tcp 85 ------- 0 0.4 1.1 1 41
r 57.343698 0 1 tcp 40 ------- 0 0.4 1.1 1 39
r 57.343911 0 1 tcp 40 ------- 0 0.4 1.1 1 40
r 57.344365 0 1 tcp 85 ------- 0 0.4 1.1 1 41
+ 57.344365 1 0 ack 85 ------- 0 1.1 0.4 1 42
- 57.344365 1 0 ack 85 ------- 0 1.1 0.4 1 42
r 57.345818 1 0 ack 85 ------- 0 1.1 0.4 1 42
+ 57.345818 0 1 tcp 59 ------- 0 0.4 1.1 46 43
- 57.345818 0 1 tcp 59 ------- 0 0.4 1.1 46 43
r 57.347133 0 1 tcp 59 ------- 0 0.4 1.1 46 43
+ 57.347133 1 0 ack 59 ------- 0 1.1 0.4 46 44
- 57.347133 1 0 ack 59 ------- 0 1.1 0.4 46 44
r 57.348447 1 0 ack 59 ------- 0 1.1 0.4 46 44
+ 57.348447 0 1 tcp 59 ------- 0 0.4 1.1 65 45
- 57.348447 0 1 tcp 59 ------- 0 0.4 1.1 65 45
r 57.349762 0 1 tcp 59 ------- 0 0.4 1.1 65 45
+ 57.349762 1 0 ack 59 ------- 0 1.1 0.4 65 46
- 57.349762 1 0 ack 59 ------- 0 1.1 0.4 65 46
r 57.351077 1 0 ack 59 ------- 0 1.1 0.4 65 46
+ 57.351077 0 1 tcp 175 ------- 0 0.4 1.1 84 47
- 57.351077 0 1 tcp 175 ------- 0 0.4 1.1 84 47
r 57.35301 0 1 tcp 175 ------- 0 0.4 1.1 84 47
+ 57.4 1 0 ack 40 ------- 0 1.1 0.4 84 48
- 57.4 1 0 ack 40 ------- 0 1.1 0.4 84 48
r 57.401213 1 0 ack 40 ------- 0 1.1 0.4 84 48
