+ 6.617715 1 3 tcp 40 ------- 0 1.1 3.0 0 0
- 6.617715 1 3 tcp 40 ------- 0 1.1 3.0 0 0
r 6.618928 1 3 tcp 40 ------- 0 1.1 3.0 0 0
+ 6.618928 3 1 ack 40 ------- 0 3.0 1.1 0 1
- 6.618928 3 1 ack 40 ------- 0 3.0 1.1 0 1
r 6.620141 3 1 ack 40 ------- 0 3.0 1.1 0 1
+ 6.620141 1 3 tcp 40 ------- 0 1.1 3.0 1 2
- 6.620141 1 3 tcp 40 ------- 0 1.1 3.0 1 2
+ 6.620141 1 3 tcp 40 ------- 0 1.1 3.0 1 3
+ 6.620141 1 3 tcp 85 ------- 0 1.1 3.0 1 4
- 6.620355 1 3 tcp 40 ------- 0 1.1 3.0 1 3
- 6.620568 1 3 tcp 85 ------- 0 1.1 3.0 1 4
r 6.621355 1 3 tcp 40 ------- 0 1.1 3.0 1 2
+ 6.621355 3 1 ack 40 ------- 0 3.0 1.1 1 5
- 6.621355 3 1 ack 40 ------- 0 3.0 1.1 1 5
r 6.621568 1 3 tcp 40 ------- 0 1.1 3.0 1 3
r 6.622021 1 3 tcp 85 ------- 0 1.1 3.0 1 4
r 6.622568 3 1 ack 40 ------- 0 3.0 1.1 1 5
+ 6.622568 1 3 tcp 40 ------- 0 1.1 3.0 46 6
- 6.622568 1 3 tcp 40 ------- 0 1.1 3.0 46 6
r 6.623781 1 3 tcp 40 ------- 0 1.1 3.0 46 6
+ 6.645207 3 1 tcp 40 ------- 0 3.2 1.0 0 7
- 6.645207 3 1 tcp 40 ------- 0 3.2 1.0 0 7
r 6.64642 3 1 tcp 40 ------- 0 3.2 1.0 0 7
+ 6.64642 1 3 ack 40 ------- 0 1.0 3.2 0 8
- 6.64642 1 3 ack 40 ------- 0 1.0 3.2 0 8
r 6.647634 1 3 ack 40 ------- 0 1.0 3.2 0 8
+ 6.647634 3 1 tcp 40 ------- 0 3.2 1.0 1 9
- 6.647634 3 1 tcp 40 ------- 0 3.2 1.0 1 9
+ 6.647634 3 1 tcp 40 ------- 0 3.2 1.0 1 10
+ 6.647634 3 1 tcp 85 ------- 0 3.2 1.0 1 11
- 6.647847 3 1 tcp 40 ------- 0 3.2 1.0 1 10
- 6.64806 3 1 tcp 85 ------- 0 3.2 1.0 1 11
r 6.648847 3 1 tcp 40 ------- 0 3.2 1.0 1 9
r 6.64906 3 1 tcp 40 ------- 0 3.2 1.0 1 10
r 6.649514 3 1 tcp 85 ------- 0 3.2 1.0 1 11
+ 6.649514 1 3 ack 85 ------- 0 1.0 3.2 1 12
- 6.649514 1 3 ack 85 ------- 0 1.0 3.2 1 12
r 6.650967 1 3 ack 85 ------- 0 1.0 3.2 1 12
+ 6.650967 3 1 tcp 59 ------- 0 3.2 1.0 46 13
- 6.650967 3 1 tcp 59 ------- 0 3.2 1.0 46 13
r 6.652282 3 1 tcp 59 ------- 0 3.2 1.0 46 13
+ 6.652282 1 3 ack 59 ------- 0 1.0 3.2 46 14
- 6.652282 1 3 ack 59 ------- 0 1.0 3.2 46 14
r 6.653596 1 3 ack 59 ------- 0 1.0 3.2 46 14
+ 6.653596 3 1 tcp 59 ------- 0 3.2 1.0 65 15
- 6.653596 3 1 tcp 59 ------- 0 3.2 1.0 65 15
r 6.654911 3 1 tcp 59 ------- 0 3.2 1.0 65 15
+ 6.654911 1 3 ack 59 ------- 0 1.0 3.2 65 16
- 6.654911 1 3 ack 59 ------- 0 1.0 3.2 65 16
r 6.656226 1 3 ack 59 ------- 0 1.0 3.2 65 16
+ 6.7 3 1 tcp 40 ------- 0 3.2 1.0 84 17
- 6.7 3 1 tcp 40 ------- 0 3.2 1.0 84 17
r 6.701213 3 1 tcp 40 ------- 0 3.2 1.0 84 17
+ 6.820141 1 3 tcp 85 ------- 0 1.1 3.0 1 18
- 6.820141 1 3 tcp 85 ------- 0 1.1 3.0 1 18
r 6.821595 1 3 tcp 85 ------- 0 1.1 3.0 1 18
+ 6.821595 3 1 ack 40 ------- 0 3.0 1.1 2 19
- 6.821595 3 1 ack 40 ------- 0 3.0 1.1 2 19
r 6.822808 3 1 ack 40 ------- 0 3.0 1.1 2 19
+ 6.822808 1 3 tcp 40 ------- 0 1.1 3.0 46 20
- 6.822808 1 3 tcp 40 ------- 0 1.1 3.0 46 20
r 6.824021 1 3 tcp 40 ------- 0 1.1 3.0 46 20
+ 6.824021 3 1 ack 40 ------- 0 3.0 1.1 2 21
- 6.824021 3 1 ack 40 ------- 0 3.0 1.1 2 21
r 6.825235 3 1 ack 40 ------- 0 3.0 1.1 2 21
+ 7.709041 0 1 tcp 40 ------- 0 0.1 1.2 0 22
- 7.709041 0 1 tcp 40 ------- 0 0.1 1.2 0 22
r 7.710255 0 1 tcp 40 ------- 0 0.1 1.2 0 22
+ 7.710255 1 0 ack 40 ------- 0 1.2 0.1 0 23
- 7.710255 1 0 ack 40 ------- 0 1.2 0.1 0 23
r 7.711468 1 0 ack 40 ------- 0 1.2 0.1 0 23
+ 7.711468 0 1 tcp 40 ------- 0 0.1 1.2 1 24
- 7.711468 0 1 tcp 40 ------- 0 0.1 1.2 1 24
+ 7.711468 0 1 tcp 40 ------- 0 0.1 1.2 1 25
+ 7.711468 0 1 tcp 85 ------- 0 0.1 1.2 1 26
- 7.711681 0 1 tcp 40 ------- 0 0.1 1.2 1 25
- 7.711895 0 1 tcp 85 ------- 0 0.1 1.2 1 26
r 7.712681 0 1 tcp 40 ------- 0 0.1 1.2 1 24
+ 7.712681 1 0 ack 40 ------- 0 1.2 0.1 1 27
- 7.712681 1 0 ack 40 ------- 0 1.2 0.1 1 27
r 7.712895 0 1 tcp 40 ------- 0 0.1 1.2 1 25
r 7.713348 0 1 tcp 85 ------- 0 0.1 1.2 1 26
r 7.713895 1 0 ack 40 ------- 0 1.2 0.1 1 27
+ 7.713895 0 1 tcp 40 ------- 0 0.1 1.2 46 28
- 7.713895 0 1 tcp 40 ------- 0 0.1 1.2 46 28
r 7.715108 0 1 tcp 40 ------- 0 0.1 1.2 46 28
+ 7.911468 0 1 tcp 85 ------- 0 0.1 1.2 1 29
- 7.911468 0 1 tcp 85 ------- 0 0.1 1.2 1 29
r 7.912921 0 1 tcp 85 ------- 0 0.1 1.2 1 29
+ 7.912921 1 0 ack 40 ------- 0 1.2 0.1 2 30
- 7.912921 1 0 ack 40 ------- 0 1.2 0.1 2 30
r 7.914135 1 0 ack 40 ------- 0 1.2 0.1 2 30
+ 7.914135 0 1 tcp 40 ------- 0 0.1 1.2 46 31
- 7.914135 0 1 tcp 40 ------- 0 0.1 1.2 46 31
r 7.915348 0 1 tcp 40 ------- 0 0.1 1.2 46 31
+ 7.915348 1 0 ack 40 ------- 0 1.2 0.1 2 32
- 7.915348 1 0 ack 40 ------- 0 1.2 0.1 2 32
r 7.916561 1 0 ack 40 ------- 0 1.2 0.1 2 32
+ 8.277162 2 1 tcp 40 ------- 0 2.1 1.3 0 33
- 8.277162 2 1 tcp 40 ------- 0 2.1 1.3 0 33
r 8.278375 2 1 tcp 40 ------- 0 2.1 1.3 0 33
+ 8.278375 1 2 ack 40 ------- 0 1.3 2.1 0 34
- 8.278375 1 2 ack 40 ------- 0 1.3 2.1 0 34
r 8.279588 1 2 ack 40 ------- 0 1.3 2.1 0 34
+ 8.279588 2 1 tcp 40 ------- 0 2.1 1.3 1 35
- 8.279588 2 1 tcp 40 ------- 0 2.1 1.3 1 35
+ 8.279588 2 1 tcp 40 ------- 0 2.1 1.3 1 36
+ 8.279588 2 1 tcp 85 ------- 0 2.1 1.3 1 37
- 8.279802 2 1 tcp 40 ------- 0 2.1 1.3 1 36
- 8.280015 2 1 tcp 85 ------- 0 2.1 1.3 1 37
r 8.280802 2 1 tcp 40 ------- 0 2.1 1.3 1 35
+ 8.280802 1 2 ack 40 ------- 0 1.3 2.1 1 38
- 8.280802 1 2 ack 40 ------- 0 1.3 2.1 1 38
r 8.281015 2 1 tcp 40 ------- 0 2.1 1.3 1 36
r 8.281468 2 1 tcp 85 ------- 0 2.1 1.3 1 37
r 8.282015 1 2 ack 40 ------- 0 1.3 2.1 1 38
+ 8.282015 2 1 tcp 40 ------- 0 2.1 1.3 46 39
- 8.282015 2 1 tcp 40 ------- 0 2.1 1.3 46 39
r 8.283228 2 1 tcp 40 ------- 0 2.1 1.3 46 39
+ 8.479588 2 1 tcp 85 ------- 0 2.1 1.3 1 40
- 8.479588 2 1 tcp 85 ------- 0 2.1 1.3 1 40
r 8.481042 2 1 tcp 85 ------- 0 2.1 1.3 1 40
+ 8.481042 1 2 ack 40 ------- 0 1.3 2.1 2 41
- 8.481042 1 2 ack 40 ------- 0 1.3 2.1 2 41
r 8.482255 1 2 ack 40 ------- 0 1.3 2.1 2 41
+ 8.482255 2 1 tcp 40 ------- 0 2.1 1.3 46 42
- 8.482255 2 1 tcp 40 ------- 0 2.1 1.3 46 42
r 8.483468 2 1 tcp 40 ------- 0 2.1 1.3 46 42
+ 8.483468 1 2 ack 40 ------- 0 1.3 2.1 2 43
- 8.483468 1 2 ack 40 ------- 0 1.3 2.1 2 43
r 8.484682 1 2 ack 40 ------- 0 1.3 2.1 2 43
+ 8.834519 1 2 tcp 40 ------- 0 1.5 2.0 0 44
- 8.834519 1 2 tcp 40 ------- 0 1.5 2.0 0 44
r 8.835733 1 2 tcp 40 ------- 0 1.5 2.0 0 44
+ 8.835733 2 1 ack 40 ------- 0 2.0 1.5 0 45
- 8.835733 2 1 ack 40 ------- 0 2.0 1.5 0 45
r 8.836946 2 1 ack 40 ------- 0 2.0 1.5 0 45
+ 8.836946 1 2 tcp 40 ------- 0 1.5 2.0 1 46
- 8.836946 1 2 tcp 40 ------- 0 1.5 2.0 1 46
+ 8.836946 1 2 tcp 40 ------- 0 1.5 2.0 1 47
+ 8.836946 1 2 tcp 85 ------- 0 1.5 2.0 1 48
- 8.837159 1 2 tcp 40 ------- 0 1.5 2.0 1 47
- 8.837373 1 2 tcp 85 ------- 0 1.5 2.0 1 48
r 8.838159 1 2 tcp 40 ------- 0 1.5 2.0 1 46
r 8.838373 1 2 tcp 40 ------- 0 1.5 2.0 1 47
r 8.838826 1 2 tcp 85 ------- 0 1.5 2.0 1 48
+ 8.838826 2 1 ack 85 ------- 0 2.0 1.5 1 49
- 8.838826 2 1 ack 85 ------- 0 2.0 1.5 1 49
r 8.840279 2 1 ack 85 ------- 0 2.0 1.5 1 49
+ 8.840279 1 2 tcp 59 ------- 0 1.5 2.0 46 50
- 8.840279 1 2 tcp 59 ------- 0 1.5 2.0 46 50
r 8.841594 1 2 tcp 59 ------- 0 1.5 2.0 46 50
+ 8.841594 2 1 ack 59 ------- 0 2.0 1.5 46 51
- 8.841594 2 1 ack 59 ------- 0 2.0 1.5 46 51
r 8.842909 2 1 ack 59 ------- 0 2.0 1.5 46 51
+ 8.842909 1 2 tcp 59 ------- 0 1.5 2.0 65 52
- 8.842909 1 2 tcp 59 ------- 0 1.5 2.0 65 52
r 8.844223 1 2 tcp 59 ------- 0 1.5 2.0 65 52
+ 8.844223 2 1 ack 59 ------- 0 2.0 1.5 65 53
- 8.844223 2 1 ack 59 ------- 0 2.0 1.5 65 53
r 8.845538 2 1 ack 59 ------- 0 2.0 1.5 65 53
+ 8.880576 1 0 tcp 40 ------- 0 1.6 0.0 0 54
- 8.880576 1 0 tcp 40 ------- 0 1.6 0.0 0 54
r 8.881789 1 0 tcp 40 ------- 0 1.6 0.0 0 54
+ 8.881789 0 1 ack 40 ------- 0 0.0 1.6 0 55
- 8.881789 0 1 ack 40 ------- 0 0.0 1.6 0 55
r 8.883002 0 1 ack 40 ------- 0 0.0 1.6 0 55
+ 8.883002 1 0 tcp 40 ------- 0 1.6 0.0 1 56
- 8.883002 1 0 tcp 40 ------- 0 1.6 0.0 1 56
+ 8.883002 1 0 tcp 40 ------- 0 1.6 0.0 1 57
+ 8.883002 1 0 tcp 85 ------- 0 1.6 0.0 1 58
- 8.883216 1 0 tcp 40 ------- 0 1.6 0.0 1 57
- 8.883429 1 0 tcp 85 ------- 0 1.6 0.0 1 58
r 8.884216 1 0 tcp 40 ------- 0 1.6 0.0 1 56
r 8.884429 1 0 tcp 40 ------- 0 1.6 0.0 1 57
r 8.884882 1 0 tcp 85 ------- 0 1.6 0.0 1 58
+ 8.884882 0 1 ack 85 ------- 0 0.0 1.6 1 59
- 8.884882 0 1 ack 85 ------- 0 0.0 1.6 1 59
r 8.886336 0 1 ack 85 ------- 0 0.0 1.6 1 59
+ 8.886336 1 0 tcp 59 ------- 0 1.6 0.0 46 60
- 8.886336 1 0 tcp 59 ------- 0 1.6 0.0 46 60
r 8.88765 1 0 tcp 59 ------- 0 1.6 0.0 46 60
+ 8.88765 0 1 ack 59 ------- 0 0.0 1.6 46 61
- 8.88765 0 1 ack 59 ------- 0 0.0 1.6 46 61
r 8.888965 0 1 ack 59 ------- 0 0.0 1.6 46 61
+ 8.888965 1 0 tcp 59 ------- 0 1.6 0.0 65 62
- 8.888965 1 0 tcp 59 ------- 0 1.6 0.0 65 62
r 8.89028 1 0 tcp 59 ------- 0 1.6 0.0 65 62
+ 8.89028 0 1 ack 59 ------- 0 0.0 1.6 65 63
- 8.89028 0 1 ack 59 ------- 0 0.0 1.6 65 63
r 8.891594 0 1 ack 59 ------- 0 0.0 1.6 65 63
+ 8.9 1 2 tcp 40 ------- 0 1.5 2.0 84 64
- 8.9 1 2 tcp 40 ------- 0 1.5 2.0 84 64
+ 8.9 1 0 tcp 40 ------- 0 1.6 0.0 84 65
- 8.9 1 0 tcp 40 ------- 0 1.6 0.0 84 65
r 8.901213 1 2 tcp 40 ------- 0 1.5 2.0 84 64
r 8.901213 1 0 tcp 40 ------- 0 1.6 0.0 84 65
+ 20 2 1 ack 91 ---A--- 0 2.0 1.5 84 66
- 20 2 1 ack 91 ---A--- 0 2.0 1.5 84 66
r 20.001485 2 1 ack 91 ---A--- 0 2.0 1.5 84 66
+ 20.001485 1 0 tcp 93 ---A--- 0 1.6 0.0 84 67
- 20.001485 1 0 tcp 93 ---A--- 0 1.6 0.0 84 67
+ 20.001485 1 3 ack 93 ---A--- 0 1.0 3.2 84 68
- 20.001485 1 3 ack 93 ---A--- 0 1.0 3.2 84 68
r 20.002981 1 0 tcp 93 ---A--- 0 1.6 0.0 84 67
r 20.002981 1 3 ack 93 ---A--- 0 1.0 3.2 84 68
+ 20.1 3 1 tcp 40 ------- 0 3.2 1.0 84 69
- 20.1 3 1 tcp 40 ------- 0 3.2 1.0 84 69
+ 20.1 1 2 tcp 40 ------- 0 1.5 2.0 84 70
- 20.1 1 2 tcp 40 ------- 0 1.5 2.0 84 70
+ 20.1 0 1 ack 40 ------- 0 0.0 1.6 84 71
- 20.1 0 1 ack 40 ------- 0 0.0 1.6 84 71
r 20.101213 3 1 tcp 40 ------- 0 3.2 1.0 84 69
r 20.101213 1 2 tcp 40 ------- 0 1.5 2.0 84 70
r 20.101213 0 1 ack 40 ------- 0 0.0 1.6 84 71
+ 21 3 1 tcp 89 ---A--- 0 3.2 1.0 84 72
- 21 3 1 tcp 89 ---A--- 0 3.2 1.0 84 72
r 21.001475 3 1 tcp 89 ---A--- 0 3.2 1.0 84 72
+ 21.001475 1 2 tcp 91 ---A--- 0 1.5 2.0 84 73
- 21.001475 1 2 tcp 91 ---A--- 0 1.5 2.0 84 73
+ 21.001475 1 3 ack 67 ---A--- 0 1.0 3.2 137 74
- 21.001475 1 3 ack 67 ---A--- 0 1.0 3.2 137 74
r 21.002832 1 3 ack 67 ---A--- 0 1.0 3.2 137 74
r 21.00296 1 2 tcp 91 ---A--- 0 1.5 2.0 84 73
+ 21.1 3 1 tcp 40 ------- 0 3.2 1.0 133 75
- 21.1 3 1 tcp 40 ------- 0 3.2 1.0 133 75
+ 21.1 2 1 ack 40 ------- 0 2.0 1.5 135 76
- 21.1 2 1 ack 40 ------- 0 2.0 1.5 135 76
r 21.101213 3 1 tcp 40 ------- 0 3.2 1.0 133 75
r 21.101213 2 1 ack 40 ------- 0 2.0 1.5 135 76
+ 50.001485 1 0 tcp 91 ---A--- 0 1.6 0.0 137 77
- 50.001485 1 0 tcp 91 ---A--- 0 1.6 0.0 137 77
r 50.002971 1 0 tcp 91 ---A--- 0 1.6 0.0 137 77
+ 50.1 0 1 ack 40 ------- 0 0.0 1.6 84 78
- 50.1 0 1 ack 40 ------- 0 0.0 1.6 84 78
r 50.101213 0 1 ack 40 ------- 0 0.0 1.6 84 78
+ 66.649514 1 3 ack 59 ---A--- 0 1.0 3.2 164 79
- 66.649514 1 3 ack 59 ---A--- 0 1.0 3.2 164 79
r 66.650828 1 3 ack 59 ---A--- 0 1.0 3.2 164 79
+ 66.650967 3 1 tcp 59 ---A--- 0 3.2 1.0 133 80
- 66.650967 3 1 tcp 59 ---A--- 0 3.2 1.0 133 80
r 66.652282 3 1 tcp 59 ---A--- 0 3.2 1.0 133 80
+ 66.7 1 3 ack 40 ------- 0 1.0 3.2 183 81
- 66.7 1 3 ack 40 ------- 0 1.0 3.2 183 81
r 66.701213 1 3 ack 40 ------- 0 1.0 3.2 183 81
+ 68.838826 2 1 ack 59 ---A--- 0 2.0 1.5 135 82
- 68.838826 2 1 ack 59 ---A--- 0 2.0 1.5 135 82
r 68.840141 2 1 ack 59 ---A--- 0 2.0 1.5 135 82
+ 68.840279 1 2 tcp 59 ---A--- 0 1.5 2.0 135 83
- 68.840279 1 2 tcp 59 ---A--- 0 1.5 2.0 135 83
r 68.841594 1 2 tcp 59 ---A--- 0 1.5 2.0 135 83
+ 68.884882 0 1 ack 59 ---A--- 0 0.0 1.6 84 84
- 68.884882 0 1 ack 59 ---A--- 0 0.0 1.6 84 84
r 68.886197 0 1 ack 59 ---A--- 0 0.0 1.6 84 84
+ 68.886336 1 0 tcp 59 ---A--- 0 1.6 0.0 188 85
- 68.886336 1 0 tcp 59 ---A--- 0 1.6 0.0 188 85
r 68.88765 1 0 tcp 59 ---A--- 0 1.6 0.0 188 85
+ 68.9 2 1 ack 40 ------- 0 2.0 1.5 154 86
- 68.9 2 1 ack 40 ------- 0 2.0 1.5 154 86
+ 68.9 0 1 ack 40 ------- 0 0.0 1.6 103 87
- 68.9 0 1 ack 40 ------- 0 0.0 1.6 103 87
r 68.901213 2 1 ack 40 ------- 0 2.0 1.5 154 86
r 68.901213 0 1 ack 40 ------- 0 0.0 1.6 103 87
