+ 5.691801 2 1 tcp 40 ------- 0 2.1 1.0 0 0
- 5.691801 2 1 tcp 40 ------- 0 2.1 1.0 0 0
r 5.693014 2 1 tcp 40 ------- 0 2.1 1.0 0 0
+ 5.693014 1 2 ack 40 ------- 0 1.0 2.1 0 1
- 5.693014 1 2 ack 40 ------- 0 1.0 2.1 0 1
r 5.694227 1 2 ack 40 ------- 0 1.0 2.1 0 1
+ 5.694227 2 1 tcp 40 ------- 0 2.1 1.0 1 2
- 5.694227 2 1 tcp 40 ------- 0 2.1 1.0 1 2
+ 5.694227 2 1 tcp 40 ------- 0 2.1 1.0 1 3
+ 5.694227 2 1 tcp 85 ------- 0 2.1 1.0 1 4
- 5.694441 2 1 tcp 40 ------- 0 2.1 1.0 1 3
- 5.694654 2 1 tcp 85 ------- 0 2.1 1.0 1 4
r 5.695441 2 1 tcp 40 ------- 0 2.1 1.0 1 2
+ 5.695441 1 2 ack 40 ------- 0 1.0 2.1 1 5
- 5.695441 1 2 ack 40 ------- 0 1.0 2.1 1 5
r 5.695654 2 1 tcp 40 ------- 0 2.1 1.0 1 3
r 5.696107 2 1 tcp 85 ------- 0 2.1 1.0 1 4
r 5.696654 1 2 ack 40 ------- 0 1.0 2.1 1 5
+ 5.696654 2 1 tcp 40 ------- 0 2.1 1.0 46 6
- 5.696654 2 1 tcp 40 ------- 0 2.1 1.0 46 6
r 5.697867 2 1 tcp 40 ------- 0 2.1 1.0 46 6
+ 5.894227 2 1 tcp 85 ------- 0 2.1 1.0 1 7
- 5.894227 2 1 tcp 85 ------- 0 2.1 1.0 1 7
r 5.895681 2 1 tcp 85 ------- 0 2.1 1.0 1 7
+ 5.895681 1 2 ack 40 ------- 0 1.0 2.1 2 8
- 5.895681 1 2 ack 40 ------- 0 1.0 2.1 2 8
r 5.896894 1 2 ack 40 ------- 0 1.0 2.1 2 8
+ 5.896894 2 1 tcp 40 ------- 0 2.1 1.0 46 9
- 5.896894 2 1 tcp 40 ------- 0 2.1 1.0 46 9
r 5.898107 2 1 tcp 40 ------- 0 2.1 1.0 46 9
+ 5.898107 1 2 ack 40 ------- 0 1.0 2.1 2 10
- 5.898107 1 2 ack 40 ------- 0 1.0 2.1 2 10
r 5.899321 1 2 ack 40 ------- 0 1.0 2.1 2 10
+ 6.525212 1 3 tcp 40 ------- 0 1.2 3.0 0 11
- 6.525212 1 3 tcp 40 ------- 0 1.2 3.0 0 11
r 6.526426 1 3 tcp 40 ------- 0 1.2 3.0 0 11
+ 6.526426 3 1 ack 40 ------- 0 3.0 1.2 0 12
- 6.526426 3 1 ack 40 ------- 0 3.0 1.2 0 12
r 6.527639 3 1 ack 40 ------- 0 3.0 1.2 0 12
+ 6.527639 1 3 tcp 40 ------- 0 1.2 3.0 1 13
- 6.527639 1 3 tcp 40 ------- 0 1.2 3.0 1 13
+ 6.527639 1 3 tcp 40 ------- 0 1.2 3.0 1 14
+ 6.527639 1 3 tcp 85 ------- 0 1.2 3.0 1 15
- 6.527852 1 3 tcp 40 ------- 0 1.2 3.0 1 14
- 6.528066 1 3 tcp 85 ------- 0 1.2 3.0 1 15
r 6.528852 1 3 tcp 40 ------- 0 1.2 3.0 1 13
+ 6.528852 3 1 ack 40 ------- 0 3.0 1.2 1 16
- 6.528852 3 1 ack 40 ------- 0 3.0 1.2 1 16
r 6.529066 1 3 tcp 40 ------- 0 1.2 3.0 1 14
r 6.529519 1 3 tcp 85 ------- 0 1.2 3.0 1 15
r 6.530066 3 1 ack 40 ------- 0 3.0 1.2 1 16
+ 6.530066 1 3 tcp 40 ------- 0 1.2 3.0 46 17
- 6.530066 1 3 tcp 40 ------- 0 1.2 3.0 46 17
r 6.531279 1 3 tcp 40 ------- 0 1.2 3.0 46 17
+ 6.640698 1 2 tcp 40 ------- 0 1.3 2.0 0 18
- 6.640698 1 2 tcp 40 ------- 0 1.3 2.0 0 18
r 6.641912 1 2 tcp 40 ------- 0 1.3 2.0 0 18
+ 6.641912 2 1 ack 40 ------- 0 2.0 1.3 0 19
- 6.641912 2 1 ack 40 ------- 0 2.0 1.3 0 19
r 6.643125 2 1 ack 40 ------- 0 2.0 1.3 0 19
+ 6.643125 1 2 tcp 40 ------- 0 1.3 2.0 1 20
- 6.643125 1 2 tcp 40 ------- 0 1.3 2.0 1 20
+ 6.643125 1 2 tcp 40 ------- 0 1.3 2.0 1 21
+ 6.643125 1 2 tcp 85 ------- 0 1.3 2.0 1 22
- 6.643338 1 2 tcp 40 ------- 0 1.3 2.0 1 21
- 6.643552 1 2 tcp 85 ------- 0 1.3 2.0 1 22
r 6.644338 1 2 tcp 40 ------- 0 1.3 2.0 1 20
r 6.644552 1 2 tcp 40 ------- 0 1.3 2.0 1 21
r 6.645005 1 2 tcp 85 ------- 0 1.3 2.0 1 22
+ 6.645005 2 1 ack 85 ------- 0 2.0 1.3 1 23
- 6.645005 2 1 ack 85 ------- 0 2.0 1.3 1 23
r 6.646458 2 1 ack 85 ------- 0 2.0 1.3 1 23
+ 6.646458 1 2 tcp 59 ------- 0 1.3 2.0 46 24
- 6.646458 1 2 tcp 59 ------- 0 1.3 2.0 46 24
r 6.647773 1 2 tcp 59 ------- 0 1.3 2.0 46 24
+ 6.647773 2 1 ack 59 ------- 0 2.0 1.3 46 25
- 6.647773 2 1 ack 59 ------- 0 2.0 1.3 46 25
r 6.649088 2 1 ack 59 ------- 0 2.0 1.3 46 25
+ 6.649088 1 2 tcp 59 ------- 0 1.3 2.0 65 26
- 6.649088 1 2 tcp 59 ------- 0 1.3 2.0 65 26
r 6.650402 1 2 tcp 59 ------- 0 1.3 2.0 65 26
+ 6.650402 2 1 ack 59 ------- 0 2.0 1.3 65 27
- 6.650402 2 1 ack 59 ------- 0 2.0 1.3 65 27
r 6.651717 2 1 ack 59 ------- 0 2.0 1.3 65 27
+ 6.7 1 2 tcp 40 ------- 0 1.3 2.0 84 28
- 6.7 1 2 tcp 40 ------- 0 1.3 2.0 84 28
r 6.701213 1 2 tcp 40 ------- 0 1.3 2.0 84 28
+ 6.727639 1 3 tcp 85 ------- 0 1.2 3.0 1 29
- 6.727639 1 3 tcp 85 ------- 0 1.2 3.0 1 29
r 6.729092 1 3 tcp 85 ------- 0 1.2 3.0 1 29
+ 6.729092 3 1 ack 40 ------- 0 3.0 1.2 2 30
- 6.729092 3 1 ack 40 ------- 0 3.0 1.2 2 30
r 6.730306 3 1 ack 40 ------- 0 3.0 1.2 2 30
+ 6.730306 1 3 tcp 40 ------- 0 1.2 3.0 46 31
- 6.730306 1 3 tcp 40 ------- 0 1.2 3.0 46 31
r 6.731519 1 3 tcp 40 ------- 0 1.2 3.0 46 31
+ 6.731519 3 1 ack 40 ------- 0 3.0 1.2 2 32
- 6.731519 3 1 ack 40 ------- 0 3.0 1.2 2 32
r 6.732732 3 1 ack 40 ------- 0 3.0 1.2 2 32
+ 7.242465 0 1 tcp 40 ------- 0 0.1 1.1 0 33
- 7.242465 0 1 tcp 40 ------- 0 0.1 1.1 0 33
r 7.243678 0 1 tcp 40 ------- 0 0.1 1.1 0 33
+ 7.243678 1 0 ack 40 ------- 0 1.1 0.1 0 34
- 7.243678 1 0 ack 40 ------- 0 1.1 0.1 0 34
r 7.244891 1 0 ack 40 ------- 0 1.1 0.1 0 34
+ 7.244891 0 1 tcp 40 ------- 0 0.1 1.1 1 35
- 7.244891 0 1 tcp 40 ------- 0 0.1 1.1 1 35
+ 7.244891 0 1 tcp 40 ------- 0 0.1 1.1 1 36
+ 7.244891 0 1 tcp 85 ------- 0 0.1 1.1 1 37
- 7.245105 0 1 tcp 40 ------- 0 0.1 1.1 1 36
- 7.245318 0 1 tcp 85 ------- 0 0.1 1.1 1 37
r 7.246105 0 1 tcp 40 ------- 0 0.1 1.1 1 35
+ 7.246105 1 0 ack 40 ------- 0 1.1 0.1 1 38
- 7.246105 1 0 ack 40 ------- 0 1.1 0.1 1 38
r 7.246318 0 1 tcp 40 ------- 0 0.1 1.1 1 36
r 7.246771 0 1 tcp 85 ------- 0 0.1 1.1 1 37
r 7.247318 1 0 ack 40 ------- 0 1.1 0.1 1 38
+ 7.247318 0 1 tcp 40 ------- 0 0.1 1.1 46 39
- 7.247318 0 1 tcp 40 ------- 0 0.1 1.1 46 39
r 7.248531 0 1 tcp 40 ------- 0 0.1 1.1 46 39
+ 7.444891 0 1 tcp 85 ------- 0 0.1 1.1 1 40
- 7.444891 0 1 tcp 85 ------- 0 0.1 1.1 1 40
r 7.446345 0 1 tcp 85 ------- 0 0.1 1.1 1 40
+ 7.446345 1 0 ack 40 ------- 0 1.1 0.1 2 41
- 7.446345 1 0 ack 40 ------- 0 1.1 0.1 2 41
r 7.447558 1 0 ack 40 ------- 0 1.1 0.1 2 41
+ 7.447558 0 1 tcp 40 ------- 0 0.1 1.1 46 42
- 7.447558 0 1 tcp 40 ------- 0 0.1 1.1 46 42
r 7.448771 0 1 tcp 40 ------- 0 0.1 1.1 46 42
+ 7.448771 1 0 ack 40 ------- 0 1.1 0.1 2 43
- 7.448771 1 0 ack 40 ------- 0 1.1 0.1 2 43
r 7.449985 1 0 ack 40 ------- 0 1.1 0.1 2 43
+ 8.478576 3 1 tcp 40 ------- 0 3.2 1.4 0 44
- 8.478576 3 1 tcp 40 ------- 0 3.2 1.4 0 44
r 8.479789 3 1 tcp 40 ------- 0 3.2 1.4 0 44
+ 8.479789 1 3 ack 40 ------- 0 1.4 3.2 0 45
- 8.479789 1 3 ack 40 ------- 0 1.4 3.2 0 45
r 8.481002 1 3 ack 40 ------- 0 1.4 3.2 0 45
+ 8.481002 3 1 tcp 40 ------- 0 3.2 1.4 1 46
- 8.481002 3 1 tcp 40 ------- 0 3.2 1.4 1 46
+ 8.481002 3 1 tcp 40 ------- 0 3.2 1.4 1 47
+ 8.481002 3 1 tcp 85 ------- 0 3.2 1.4 1 48
- 8.481216 3 1 tcp 40 ------- 0 3.2 1.4 1 47
- 8.481429 3 1 tcp 85 ------- 0 3.2 1.4 1 48
r 8.482216 3 1 tcp 40 ------- 0 3.2 1.4 1 46
r 8.482429 3 1 tcp 40 ------- 0 3.2 1.4 1 47
r 8.482882 3 1 tcp 85 ------- 0 3.2 1.4 1 48
+ 8.482882 1 3 ack 85 ------- 0 1.4 3.2 1 49
- 8.482882 1 3 ack 85 ------- 0 1.4 3.2 1 49
r 8.484336 1 3 ack 85 ------- 0 1.4 3.2 1 49
+ 8.484336 3 1 tcp 59 ------- 0 3.2 1.4 46 50
- 8.484336 3 1 tcp 59 ------- 0 3.2 1.4 46 50
r 8.48565 3 1 tcp 59 ------- 0 3.2 1.4 46 50
+ 8.48565 1 3 ack 59 ------- 0 1.4 3.2 46 51
- 8.48565 1 3 ack 59 ------- 0 1.4 3.2 46 51
r 8.486965 1 3 ack 59 ------- 0 1.4 3.2 46 51
+ 8.486965 3 1 tcp 59 ------- 0 3.2 1.4 65 52
- 8.486965 3 1 tcp 59 ------- 0 3.2 1.4 65 52
r 8.48828 3 1 tcp 59 ------- 0 3.2 1.4 65 52
+ 8.48828 1 3 ack 59 ------- 0 1.4 3.2 65 53
- 8.48828 1 3 ack 59 ------- 0 1.4 3.2 65 53
r 8.489594 1 3 ack 59 ------- 0 1.4 3.2 65 53
+ 8.5 3 1 tcp 40 ------- 0 3.2 1.4 84 54
- 8.5 3 1 tcp 40 ------- 0 3.2 1.4 84 54
r 8.501213 3 1 tcp 40 ------- 0 3.2 1.4 84 54
+ 8.676642 1 0 tcp 40 ------- 0 1.6 0.0 0 55
- 8.676642 1 0 tcp 40 ------- 0 1.6 0.0 0 55
r 8.677855 1 0 tcp 40 ------- 0 1.6 0.0 0 55
+ 8.677855 0 1 ack 40 ------- 0 0.0 1.6 0 56
- 8.677855 0 1 ack 40 ------- 0 0.0 1.6 0 56
r 8.679068 0 1 ack 40 ------- 0 0.0 1.6 0 56
+ 8.679068 1 0 tcp 40 ------- 0 1.6 0.0 1 57
- 8.679068 1 0 tcp 40 ------- 0 1.6 0.0 1 57
+ 8.679068 1 0 tcp 40 ------- 0 1.6 0.0 1 58
+ 8.679068 1 0 tcp 85 ------- 0 1.6 0.0 1 59
- 8.679282 1 0 tcp 40 ------- 0 1.6 0.0 1 58
- 8.679495 1 0 tcp 85 ------- 0 1.6 0.0 1 59
r 8.680282 1 0 tcp 40 ------- 0 1.6 0.0 1 57
r 8.680495 1 0 tcp 40 ------- 0 1.6 0.0 1 58
r 8.680948 1 0 tcp 85 ------- 0 1.6 0.0 1 59
+ 8.680948 0 1 ack 85 ------- 0 0.0 1.6 1 60
- 8.680948 0 1 ack 85 ------- 0 0.0 1.6 1 60
r 8.682402 0 1 ack 85 ------- 0 0.0 1.6 1 60
+ 8.682402 1 0 tcp 59 ------- 0 1.6 0.0 46 61
- 8.682402 1 0 tcp 59 ------- 0 1.6 0.0 46 61
r 8.683716 1 0 tcp 59 ------- 0 1.6 0.0 46 61
+ 8.683716 0 1 ack 59 ------- 0 0.0 1.6 46 62
- 8.683716 0 1 ack 59 ------- 0 0.0 1.6 46 62
r 8.685031 0 1 ack 59 ------- 0 0.0 1.6 46 62
+ 8.685031 1 0 tcp 59 ------- 0 1.6 0.0 65 63
- 8.685031 1 0 tcp 59 ------- 0 1.6 0.0 65 63
r 8.686346 1 0 tcp 59 ------- 0 1.6 0.0 65 63
+ 8.686346 0 1 ack 59 ------- 0 0.0 1.6 65 64
- 8.686346 0 1 ack 59 ------- 0 0.0 1.6 65 64
r 8.68766 0 1 ack 59 ------- 0 0.0 1.6 65 64
+ 8.7 1 0 tcp 40 ------- 0 1.6 0.0 84 65
- 8.7 1 0 tcp 40 ------- 0 1.6 0.0 84 65
r 8.701213 1 0 tcp 40 ------- 0 1.6 0.0 84 65
+ 10 2 1 ack 91 ---A--- 0 2.0 1.3 84 66
- 10 2 1 ack 91 ---A--- 0 2.0 1.3 84 66
r 10.001485 2 1 ack 91 ---A--- 0 2.0 1.3 84 66
+ 10.001485 1 0 tcp 93 ---A--- 0 1.6 0.0 84 67
- 10.001485 1 0 tcp 93 ---A--- 0 1.6 0.0 84 67
+ 10.001485 1 3 ack 93 ---A--- 0 1.4 3.2 84 68
- 10.001485 1 3 ack 93 ---A--- 0 1.4 3.2 84 68
r 10.002981 1 0 tcp 93 ---A--- 0 1.6 0.0 84 67
r 10.002981 1 3 ack 93 ---A--- 0 1.4 3.2 84 68
+ 10.1 1 2 tcp 40 ------- 0 1.3 2.0 84 69
- 10.1 1 2 tcp 40 ------- 0 1.3 2.0 84 69
+ 10.1 3 1 tcp 40 ------- 0 3.2 1.4 84 70
- 10.1 3 1 tcp 40 ------- 0 3.2 1.4 84 70
+ 10.1 0 1 ack 40 ------- 0 0.0 1.6 84 71
- 10.1 0 1 ack 40 ------- 0 0.0 1.6 84 71
r 10.101213 1 2 tcp 40 ------- 0 1.3 2.0 84 69
r 10.101213 3 1 tcp 40 ------- 0 3.2 1.4 84 70
r 10.101213 0 1 ack 40 ------- 0 0.0 1.6 84 71
+ 11 3 1 tcp 89 ---A--- 0 3.2 1.4 84 72
- 11 3 1 tcp 89 ---A--- 0 3.2 1.4 84 72
r 11.001475 3 1 tcp 89 ---A--- 0 3.2 1.4 84 72
+ 11.001475 1 0 tcp 91 ---A--- 0 1.6 0.0 137 73
- 11.001475 1 0 tcp 91 ---A--- 0 1.6 0.0 137 73
+ 11.001475 1 2 tcp 91 ---A--- 0 1.3 2.0 84 74
- 11.001475 1 2 tcp 91 ---A--- 0 1.3 2.0 84 74
+ 11.001475 1 3 ack 67 ---A--- 0 1.4 3.2 137 75
- 11.001475 1 3 ack 67 ---A--- 0 1.4 3.2 137 75
r 11.002832 1 3 ack 67 ---A--- 0 1.4 3.2 137 75
r 11.00296 1 0 tcp 91 ---A--- 0 1.6 0.0 137 73
r 11.00296 1 2 tcp 91 ---A--- 0 1.3 2.0 84 74
+ 11.1 2 1 ack 40 ------- 0 2.0 1.3 135 76
- 11.1 2 1 ack 40 ------- 0 2.0 1.3 135 76
+ 11.1 3 1 tcp 40 ------- 0 3.2 1.4 133 77
- 11.1 3 1 tcp 40 ------- 0 3.2 1.4 133 77
+ 11.1 0 1 ack 40 ------- 0 0.0 1.6 84 78
- 11.1 0 1 ack 40 ------- 0 0.0 1.6 84 78
r 11.101213 2 1 ack 40 ------- 0 2.0 1.3 135 76
r 11.101213 3 1 tcp 40 ------- 0 3.2 1.4 133 77
r 11.101213 0 1 ack 40 ------- 0 0.0 1.6 84 78
