+ 6.505946 0 1 tcp 40 ------- 0 0.1 1.0 0 0
- 6.505946 0 1 tcp 40 ------- 0 0.1 1.0 0 0
r 6.50716 0 1 tcp 40 ------- 0 0.1 1.0 0 0
+ 6.50716 1 0 ack 40 ------- 0 1.0 0.1 0 1
- 6.50716 1 0 ack 40 ------- 0 1.0 0.1 0 1
r 6.508373 1 0 ack 40 ------- 0 1.0 0.1 0 1
+ 6.508373 0 1 tcp 40 ------- 0 0.1 1.0 1 2
- 6.508373 0 1 tcp 40 ------- 0 0.1 1.0 1 2
+ 6.508373 0 1 tcp 40 ------- 0 0.1 1.0 1 3
+ 6.508373 0 1 tcp 85 ------- 0 0.1 1.0 1 4
- 6.508586 0 1 tcp 40 ------- 0 0.1 1.0 1 3
- 6.5088 0 1 tcp 85 ------- 0 0.1 1.0 1 4
r 6.509586 0 1 tcp 40 ------- 0 0.1 1.0 1 2
+ 6.509586 1 0 ack 40 ------- 0 1.0 0.1 1 5
- 6.509586 1 0 ack 40 ------- 0 1.0 0.1 1 5
r 6.5098 0 1 tcp 40 ------- 0 0.1 1.0 1 3
r 6.510253 0 1 tcp 85 ------- 0 0.1 1.0 1 4
r 6.5108 1 0 ack 40 ------- 0 1.0 0.1 1 5
+ 6.5108 0 1 tcp 40 ------- 0 0.1 1.0 46 6
- 6.5108 0 1 tcp 40 ------- 0 0.1 1.0 46 6
r 6.512013 0 1 tcp 40 ------- 0 0.1 1.0 46 6
+ 6.708373 0 1 tcp 85 ------- 0 0.1 1.0 1 7
- 6.708373 0 1 tcp 85 ------- 0 0.1 1.0 1 7
r 6.709826 0 1 tcp 85 ------- 0 0.1 1.0 1 7
+ 6.709826 1 0 ack 40 ------- 0 1.0 0.1 2 8
- 6.709826 1 0 ack 40 ------- 0 1.0 0.1 2 8
r 6.71104 1 0 ack 40 ------- 0 1.0 0.1 2 8
+ 6.71104 0 1 tcp 40 ------- 0 0.1 1.0 46 9
- 6.71104 0 1 tcp 40 ------- 0 0.1 1.0 46 9
r 6.712253 0 1 tcp 40 ------- 0 0.1 1.0 46 9
+ 6.712253 1 0 ack 40 ------- 0 1.0 0.1 2 10
- 6.712253 1 0 ack 40 ------- 0 1.0 0.1 2 10
r 6.713466 1 0 ack 40 ------- 0 1.0 0.1 2 10
+ 6.835828 3 1 tcp 40 ------- 0 3.1 1.1 0 11
- 6.835828 3 1 tcp 40 ------- 0 3.1 1.1 0 11
r 6.837041 3 1 tcp 40 ------- 0 3.1 1.1 0 11
+ 6.837041 1 3 ack 40 ------- 0 1.1 3.1 0 12
- 6.837041 1 3 ack 40 ------- 0 1.1 3.1 0 12
r 6.838254 1 3 ack 40 ------- 0 1.1 3.1 0 12
+ 6.838254 3 1 tcp 40 ------- 0 3.1 1.1 1 13
- 6.838254 3 1 tcp 40 ------- 0 3.1 1.1 1 13
+ 6.838254 3 1 tcp 40 ------- 0 3.1 1.1 1 14
+ 6.838254 3 1 tcp 85 ------- 0 3.1 1.1 1 15
- 6.838468 3 1 tcp 40 ------- 0 3.1 1.1 1 14
- 6.838681 3 1 tcp 85 ------- 0 3.1 1.1 1 15
r 6.839468 3 1 tcp 40 ------- 0 3.1 1.1 1 13
+ 6.839468 1 3 ack 40 ------- 0 1.1 3.1 1 16
- 6.839468 1 3 ack 40 ------- 0 1.1 3.1 1 16
r 6.839681 3 1 tcp 40 ------- 0 3.1 1.1 1 14
r 6.840134 3 1 tcp 85 ------- 0 3.1 1.1 1 15
r 6.840681 1 3 ack 40 ------- 0 1.1 3.1 1 16
+ 6.840681 3 1 tcp 40 ------- 0 3.1 1.1 46 17
- 6.840681 3 1 tcp 40 ------- 0 3.1 1.1 46 17
r 6.841894 3 1 tcp 40 ------- 0 3.1 1.1 46 17
+ 7.038254 3 1 tcp 85 ------- 0 3.1 1.1 1 18
- 7.038254 3 1 tcp 85 ------- 0 3.1 1.1 1 18
r 7.039708 3 1 tcp 85 ------- 0 3.1 1.1 1 18
+ 7.039708 1 3 ack 40 ------- 0 1.1 3.1 2 19
- 7.039708 1 3 ack 40 ------- 0 1.1 3.1 2 19
r 7.040921 1 3 ack 40 ------- 0 1.1 3.1 2 19
+ 7.040921 3 1 tcp 40 ------- 0 3.1 1.1 46 20
- 7.040921 3 1 tcp 40 ------- 0 3.1 1.1 46 20
r 7.042134 3 1 tcp 40 ------- 0 3.1 1.1 46 20
+ 7.042134 1 3 ack 40 ------- 0 1.1 3.1 2 21
- 7.042134 1 3 ack 40 ------- 0 1.1 3.1 2 21
r 7.043348 1 3 ack 40 ------- 0 1.1 3.1 2 21
+ 7.392968 1 2 tcp 40 ------- 0 1.3 2.0 0 22
- 7.392968 1 2 tcp 40 ------- 0 1.3 2.0 0 22
r 7.394182 1 2 tcp 40 ------- 0 1.3 2.0 0 22
+ 7.394182 2 1 ack 40 ------- 0 2.0 1.3 0 23
- 7.394182 2 1 ack 40 ------- 0 2.0 1.3 0 23
r 7.395395 2 1 ack 40 ------- 0 2.0 1.3 0 23
+ 7.395395 1 2 tcp 40 ------- 0 1.3 2.0 1 24
- 7.395395 1 2 tcp 40 ------- 0 1.3 2.0 1 24
+ 7.395395 1 2 tcp 40 ------- 0 1.3 2.0 1 25
+ 7.395395 1 2 tcp 85 ------- 0 1.3 2.0 1 26
- 7.395608 1 2 tcp 40 ------- 0 1.3 2.0 1 25
- 7.395822 1 2 tcp 85 ------- 0 1.3 2.0 1 26
r 7.396608 1 2 tcp 40 ------- 0 1.3 2.0 1 24
+ 7.396608 2 1 ack 40 ------- 0 2.0 1.3 1 27
- 7.396608 2 1 ack 40 ------- 0 2.0 1.3 1 27
r 7.396822 1 2 tcp 40 ------- 0 1.3 2.0 1 25
r 7.397275 1 2 tcp 85 ------- 0 1.3 2.0 1 26
r 7.397822 2 1 ack 40 ------- 0 2.0 1.3 1 27
+ 7.397822 1 2 tcp 40 ------- 0 1.3 2.0 46 28
- 7.397822 1 2 tcp 40 ------- 0 1.3 2.0 46 28
r 7.399035 1 2 tcp 40 ------- 0 1.3 2.0 46 28
+ 7.595395 1 2 tcp 85 ------- 0 1.3 2.0 1 29
- 7.595395 1 2 tcp 85 ------- 0 1.3 2.0 1 29
r 7.596848 1 2 tcp 85 ------- 0 1.3 2.0 1 29
+ 7.596848 2 1 ack 40 ------- 0 2.0 1.3 2 30
- 7.596848 2 1 ack 40 ------- 0 2.0 1.3 2 30
r 7.598062 2 1 ack 40 ------- 0 2.0 1.3 2 30
+ 7.598062 1 2 tcp 40 ------- 0 1.3 2.0 46 31
- 7.598062 1 2 tcp 40 ------- 0 1.3 2.0 46 31
r 7.599275 1 2 tcp 40 ------- 0 1.3 2.0 46 31
+ 7.599275 2 1 ack 40 ------- 0 2.0 1.3 2 32
- 7.599275 2 1 ack 40 ------- 0 2.0 1.3 2 32
r 7.600488 2 1 ack 40 ------- 0 2.0 1.3 2 32
+ 7.71749 1 4 tcp 40 ------- 0 1.4 4.0 0 33
- 7.71749 1 4 tcp 40 ------- 0 1.4 4.0 0 33
r 7.718704 1 4 tcp 40 ------- 0 1.4 4.0 0 33
+ 7.718704 4 1 ack 40 ------- 0 4.0 1.4 0 34
- 7.718704 4 1 ack 40 ------- 0 4.0 1.4 0 34
r 7.719917 4 1 ack 40 ------- 0 4.0 1.4 0 34
+ 7.719917 1 4 tcp 40 ------- 0 1.4 4.0 1 35
- 7.719917 1 4 tcp 40 ------- 0 1.4 4.0 1 35
+ 7.719917 1 4 tcp 40 ------- 0 1.4 4.0 1 36
+ 7.719917 1 4 tcp 85 ------- 0 1.4 4.0 1 37
- 7.72013 1 4 tcp 40 ------- 0 1.4 4.0 1 36
- 7.720344 1 4 tcp 85 ------- 0 1.4 4.0 1 37
r 7.72113 1 4 tcp 40 ------- 0 1.4 4.0 1 35
+ 7.72113 4 1 ack 40 ------- 0 4.0 1.4 1 38
- 7.72113 4 1 ack 40 ------- 0 4.0 1.4 1 38
r 7.721344 1 4 tcp 40 ------- 0 1.4 4.0 1 36
r 7.721797 1 4 tcp 85 ------- 0 1.4 4.0 1 37
r 7.722344 4 1 ack 40 ------- 0 4.0 1.4 1 38
+ 7.722344 1 4 tcp 40 ------- 0 1.4 4.0 46 39
- 7.722344 1 4 tcp 40 ------- 0 1.4 4.0 46 39
r 7.723557 1 4 tcp 40 ------- 0 1.4 4.0 46 39
+ 7.919917 1 4 tcp 85 ------- 0 1.4 4.0 1 40
- 7.919917 1 4 tcp 85 ------- 0 1.4 4.0 1 40
r 7.92137 1 4 tcp 85 ------- 0 1.4 4.0 1 40
+ 7.92137 4 1 ack 40 ------- 0 4.0 1.4 2 41
- 7.92137 4 1 ack 40 ------- 0 4.0 1.4 2 41
r 7.922584 4 1 ack 40 ------- 0 4.0 1.4 2 41
+ 7.922584 1 4 tcp 40 ------- 0 1.4 4.0 46 42
- 7.922584 1 4 tcp 40 ------- 0 1.4 4.0 46 42
r 7.923797 1 4 tcp 40 ------- 0 1.4 4.0 46 42
+ 7.923797 4 1 ack 40 ------- 0 4.0 1.4 2 43
- 7.923797 4 1 ack 40 ------- 0 4.0 1.4 2 43
r 7.92501 4 1 ack 40 ------- 0 4.0 1.4 2 43
+ 7.969326 1 3 tcp 40 ------- 0 1.5 3.0 0 44
- 7.969326 1 3 tcp 40 ------- 0 1.5 3.0 0 44
r 7.970539 1 3 tcp 40 ------- 0 1.5 3.0 0 44
+ 7.970539 3 1 ack 40 ------- 0 3.0 1.5 0 45
- 7.970539 3 1 ack 40 ------- 0 3.0 1.5 0 45
r 7.971753 3 1 ack 40 ------- 0 3.0 1.5 0 45
+ 7.971753 1 3 tcp 40 ------- 0 1.5 3.0 1 46
- 7.971753 1 3 tcp 40 ------- 0 1.5 3.0 1 46
+ 7.971753 1 3 tcp 40 ------- 0 1.5 3.0 1 47
+ 7.971753 1 3 tcp 85 ------- 0 1.5 3.0 1 48
- 7.971966 1 3 tcp 40 ------- 0 1.5 3.0 1 47
- 7.972179 1 3 tcp 85 ------- 0 1.5 3.0 1 48
r 7.972966 1 3 tcp 40 ------- 0 1.5 3.0 1 46
r 7.973179 1 3 tcp 40 ------- 0 1.5 3.0 1 47
r 7.973633 1 3 tcp 85 ------- 0 1.5 3.0 1 48
+ 7.973633 3 1 ack 85 ------- 0 3.0 1.5 1 49
- 7.973633 3 1 ack 85 ------- 0 3.0 1.5 1 49
r 7.975086 3 1 ack 85 ------- 0 3.0 1.5 1 49
+ 7.975086 1 3 tcp 59 ------- 0 1.5 3.0 46 50
- 7.975086 1 3 tcp 59 ------- 0 1.5 3.0 46 50
r 7.976401 1 3 tcp 59 ------- 0 1.5 3.0 46 50
+ 7.976401 3 1 ack 59 ------- 0 3.0 1.5 46 51
- 7.976401 3 1 ack 59 ------- 0 3.0 1.5 46 51
r 7.977715 3 1 ack 59 ------- 0 3.0 1.5 46 51
+ 7.977715 1 3 tcp 59 ------- 0 1.5 3.0 65 52
- 7.977715 1 3 tcp 59 ------- 0 1.5 3.0 65 52
r 7.97903 1 3 tcp 59 ------- 0 1.5 3.0 65 52
+ 7.97903 3 1 ack 59 ------- 0 3.0 1.5 65 53
- 7.97903 3 1 ack 59 ------- 0 3.0 1.5 65 53
r 7.980345 3 1 ack 59 ------- 0 3.0 1.5 65 53
+ 8 1 3 tcp 40 ------- 0 1.5 3.0 84 54
- 8 1 3 tcp 40 ------- 0 1.5 3.0 84 54
r 8.001213 1 3 tcp 40 ------- 0 1.5 3.0 84 54
+ 8.1284 4 1 tcp 40 ------- 0 4.2 1.2 0 55
- 8.1284 4 1 tcp 40 ------- 0 4.2 1.2 0 55
r 8.129613 4 1 tcp 40 ------- 0 4.2 1.2 0 55
+ 8.129613 1 4 ack 40 ------- 0 1.2 4.2 0 56
- 8.129613 1 4 ack 40 ------- 0 1.2 4.2 0 56
r 8.130827 1 4 ack 40 ------- 0 1.2 4.2 0 56
+ 8.130827 4 1 tcp 40 ------- 0 4.2 1.2 1 57
- 8.130827 4 1 tcp 40 ------- 0 4.2 1.2 1 57
+ 8.130827 4 1 tcp 40 ------- 0 4.2 1.2 1 58
+ 8.130827 4 1 tcp 85 ------- 0 4.2 1.2 1 59
- 8.13104 4 1 tcp 40 ------- 0 4.2 1.2 1 58
- 8.131253 4 1 tcp 85 ------- 0 4.2 1.2 1 59
r 8.13204 4 1 tcp 40 ------- 0 4.2 1.2 1 57
r 8.132253 4 1 tcp 40 ------- 0 4.2 1.2 1 58
r 8.132707 4 1 tcp 85 ------- 0 4.2 1.2 1 59
+ 8.132707 1 4 ack 85 ------- 0 1.2 4.2 1 60
- 8.132707 1 4 ack 85 ------- 0 1.2 4.2 1 60
r 8.13416 1 4 ack 85 ------- 0 1.2 4.2 1 60
+ 8.13416 4 1 tcp 59 ------- 0 4.2 1.2 46 61
- 8.13416 4 1 tcp 59 ------- 0 4.2 1.2 46 61
r 8.135475 4 1 tcp 59 ------- 0 4.2 1.2 46 61
+ 8.135475 1 4 ack 59 ------- 0 1.2 4.2 46 62
- 8.135475 1 4 ack 59 ------- 0 1.2 4.2 46 62
r 8.136789 1 4 ack 59 ------- 0 1.2 4.2 46 62
+ 8.136789 4 1 tcp 59 ------- 0 4.2 1.2 65 63
- 8.136789 4 1 tcp 59 ------- 0 4.2 1.2 65 63
r 8.138104 4 1 tcp 59 ------- 0 4.2 1.2 65 63
+ 8.138104 1 4 ack 59 ------- 0 1.2 4.2 65 64
- 8.138104 1 4 ack 59 ------- 0 1.2 4.2 65 64
r 8.139419 1 4 ack 59 ------- 0 1.2 4.2 65 64
+ 8.2 4 1 tcp 40 ------- 0 4.2 1.2 84 65
- 8.2 4 1 tcp 40 ------- 0 4.2 1.2 84 65
r 8.201213 4 1 tcp 40 ------- 0 4.2 1.2 84 65
+ 8.927448 1 0 tcp 40 ------- 0 1.7 0.0 0 66
- 8.927448 1 0 tcp 40 ------- 0 1.7 0.0 0 66
r 8.928662 1 0 tcp 40 ------- 0 1.7 0.0 0 66
+ 8.928662 0 1 ack 40 ------- 0 0.0 1.7 0 67
- 8.928662 0 1 ack 40 ------- 0 0.0 1.7 0 67
r 8.929875 0 1 ack 40 ------- 0 0.0 1.7 0 67
+ 8.929875 1 0 tcp 40 ------- 0 1.7 0.0 1 68
- 8.929875 1 0 tcp 40 ------- 0 1.7 0.0 1 68
+ 8.929875 1 0 tcp 40 ------- 0 1.7 0.0 1 69
+ 8.929875 1 0 tcp 85 ------- 0 1.7 0.0 1 70
- 8.930088 1 0 tcp 40 ------- 0 1.7 0.0 1 69
- 8.930302 1 0 tcp 85 ------- 0 1.7 0.0 1 70
r 8.931088 1 0 tcp 40 ------- 0 1.7 0.0 1 68
r 8.931302 1 0 tcp 40 ------- 0 1.7 0.0 1 69
r 8.931755 1 0 tcp 85 ------- 0 1.7 0.0 1 70
+ 8.931755 0 1 ack 85 ------- 0 0.0 1.7 1 71
- 8.931755 0 1 ack 85 ------- 0 0.0 1.7 1 71
r 8.933208 0 1 ack 85 ------- 0 0.0 1.7 1 71
+ 8.933208 1 0 tcp 59 ------- 0 1.7 0.0 46 72
- 8.933208 1 0 tcp 59 ------- 0 1.7 0.0 46 72
r 8.934523 1 0 tcp 59 ------- 0 1.7 0.0 46 72
+ 8.934523 0 1 ack 59 ------- 0 0.0 1.7 46 73
- 8.934523 0 1 ack 59 ------- 0 0.0 1.7 46 73
r 8.935838 0 1 ack 59 ------- 0 0.0 1.7 46 73
+ 8.935838 1 0 tcp 59 ------- 0 1.7 0.0 65 74
- 8.935838 1 0 tcp 59 ------- 0 1.7 0.0 65 74
r 8.937152 1 0 tcp 59 ------- 0 1.7 0.0 65 74
+ 8.937152 0 1 ack 59 ------- 0 0.0 1.7 65 75
- 8.937152 0 1 ack 59 ------- 0 0.0 1.7 65 75
r 8.938467 0 1 ack 59 ------- 0 0.0 1.7 65 75
+ 8.984954 2 1 tcp 40 ------- 0 2.2 1.6 0 76
- 8.984954 2 1 tcp 40 ------- 0 2.2 1.6 0 76
r 8.986168 2 1 tcp 40 ------- 0 2.2 1.6 0 76
+ 8.986168 1 2 ack 40 ------- 0 1.6 2.2 0 77
- 8.986168 1 2 ack 40 ------- 0 1.6 2.2 0 77
r 8.987381 1 2 ack 40 ------- 0 1.6 2.2 0 77
+ 8.987381 2 1 tcp 40 ------- 0 2.2 1.6 1 78
- 8.987381 2 1 tcp 40 ------- 0 2.2 1.6 1 78
+ 8.987381 2 1 tcp 40 ------- 0 2.2 1.6 1 79
+ 8.987381 2 1 tcp 85 ------- 0 2.2 1.6 1 80
- 8.987594 2 1 tcp 40 ------- 0 2.2 1.6 1 79
- 8.987808 2 1 tcp 85 ------- 0 2.2 1.6 1 80
r 8.988594 2 1 tcp 40 ------- 0 2.2 1.6 1 78
r 8.988808 2 1 tcp 40 ------- 0 2.2 1.6 1 79
r 8.989261 2 1 tcp 85 ------- 0 2.2 1.6 1 80
+ 8.989261 1 2 ack 85 ------- 0 1.6 2.2 1 81
- 8.989261 1 2 ack 85 ------- 0 1.6 2.2 1 81
r 8.990714 1 2 ack 85 ------- 0 1.6 2.2 1 81
+ 8.990714 2 1 tcp 59 ------- 0 2.2 1.6 46 82
- 8.990714 2 1 tcp 59 ------- 0 2.2 1.6 46 82
r 8.992029 2 1 tcp 59 ------- 0 2.2 1.6 46 82
+ 8.992029 1 2 ack 59 ------- 0 1.6 2.2 46 83
- 8.992029 1 2 ack 59 ------- 0 1.6 2.2 46 83
r 8.993344 1 2 ack 59 ------- 0 1.6 2.2 46 83
+ 8.993344 2 1 tcp 59 ------- 0 2.2 1.6 65 84
- 8.993344 2 1 tcp 59 ------- 0 2.2 1.6 65 84
r 8.994658 2 1 tcp 59 ------- 0 2.2 1.6 65 84
+ 8.994658 1 2 ack 59 ------- 0 1.6 2.2 65 85
- 8.994658 1 2 ack 59 ------- 0 1.6 2.2 65 85
r 8.995973 1 2 ack 59 ------- 0 1.6 2.2 65 85
+ 9 1 0 tcp 40 ------- 0 1.7 0.0 84 86
- 9 1 0 tcp 40 ------- 0 1.7 0.0 84 86
+ 9 2 1 tcp 40 ------- 0 2.2 1.6 84 87
- 9 2 1 tcp 40 ------- 0 2.2 1.6 84 87
r 9.001213 1 0 tcp 40 ------- 0 1.7 0.0 84 86
r 9.001213 2 1 tcp 40 ------- 0 2.2 1.6 84 87
+ 20 2 1 tcp 91 ---A--- 0 2.2 1.6 84 88
- 20 2 1 tcp 91 ---A--- 0 2.2 1.6 84 88
r 20.001485 2 1 tcp 91 ---A--- 0 2.2 1.6 84 88
+ 20.001485 1 0 tcp 93 ---A--- 0 1.7 0.0 84 89
- 20.001485 1 0 tcp 93 ---A--- 0 1.7 0.0 84 89
+ 20.001485 1 3 tcp 93 ---A--- 0 1.5 3.0 84 90
- 20.001485 1 3 tcp 93 ---A--- 0 1.5 3.0 84 90
+ 20.001485 1 4 ack 93 ---A--- 0 1.2 4.2 84 91
- 20.001485 1 4 ack 93 ---A--- 0 1.2 4.2 84 91
r 20.002981 1 0 tcp 93 ---A--- 0 1.7 0.0 84 89
r 20.002981 1 3 tcp 93 ---A--- 0 1.5 3.0 84 90
r 20.002981 1 4 ack 93 ---A--- 0 1.2 4.2 84 91
+ 20.1 3 1 ack 40 ------- 0 3.0 1.5 84 92
- 20.1 3 1 ack 40 ------- 0 3.0 1.5 84 92
+ 20.1 4 1 tcp 40 ------- 0 4.2 1.2 84 93
- 20.1 4 1 tcp 40 ------- 0 4.2 1.2 84 93
+ 20.1 0 1 ack 40 ------- 0 0.0 1.7 84 94
- 20.1 0 1 ack 40 ------- 0 0.0 1.7 84 94
+ 20.1 1 2 ack 40 ------- 0 1.6 2.2 84 95
- 20.1 1 2 ack 40 ------- 0 1.6 2.2 84 95
r 20.101213 3 1 ack 40 ------- 0 3.0 1.5 84 92
r 20.101213 4 1 tcp 40 ------- 0 4.2 1.2 84 93
r 20.101213 0 1 ack 40 ------- 0 0.0 1.7 84 94
r 20.101213 1 2 ack 40 ------- 0 1.6 2.2 84 95
+ 21 3 1 ack 89 ---A--- 0 3.0 1.5 84 96
- 21 3 1 ack 89 ---A--- 0 3.0 1.5 84 96
r 21.001475 3 1 ack 89 ---A--- 0 3.0 1.5 84 96
+ 21.001475 1 2 ack 91 ---A--- 0 1.6 2.2 84 97
- 21.001475 1 2 ack 91 ---A--- 0 1.6 2.2 84 97
+ 21.001475 1 3 tcp 67 ---A--- 0 1.5 3.0 137 98
- 21.001475 1 3 tcp 67 ---A--- 0 1.5 3.0 137 98
r 21.002832 1 3 tcp 67 ---A--- 0 1.5 3.0 137 98
r 21.00296 1 2 ack 91 ---A--- 0 1.6 2.2 84 97
+ 21.1 3 1 ack 40 ------- 0 3.0 1.5 133 99
- 21.1 3 1 ack 40 ------- 0 3.0 1.5 133 99
+ 21.1 2 1 tcp 40 ------- 0 2.2 1.6 135 100
- 21.1 2 1 tcp 40 ------- 0 2.2 1.6 135 100
r 21.101213 3 1 ack 40 ------- 0 3.0 1.5 133 99
r 21.101213 2 1 tcp 40 ------- 0 2.2 1.6 135 100
+ 50.001485 1 4 ack 91 ---A--- 0 1.2 4.2 137 101
- 50.001485 1 4 ack 91 ---A--- 0 1.2 4.2 137 101
+ 50.001485 1 0 tcp 91 ---A--- 0 1.7 0.0 137 102
- 50.001485 1 0 tcp 91 ---A--- 0 1.7 0.0 137 102
r 50.002971 1 4 ack 91 ---A--- 0 1.2 4.2 137 101
r 50.002971 1 0 tcp 91 ---A--- 0 1.7 0.0 137 102
+ 50.1 4 1 tcp 40 ------- 0 4.2 1.2 84 103
- 50.1 4 1 tcp 40 ------- 0 4.2 1.2 84 103
+ 50.1 0 1 ack 40 ------- 0 0.0 1.7 84 104
- 50.1 0 1 ack 40 ------- 0 0.0 1.7 84 104
r 50.101213 4 1 tcp 40 ------- 0 4.2 1.2 84 103
r 50.101213 0 1 ack 40 ------- 0 0.0 1.7 84 104
+ 67.973633 3 1 ack 59 ---A--- 0 3.0 1.5 133 105
- 67.973633 3 1 ack 59 ---A--- 0 3.0 1.5 133 105
r 67.974947 3 1 ack 59 ---A--- 0 3.0 1.5 133 105
+ 67.975086 1 3 tcp 59 ---A--- 0 1.5 3.0 164 106
- 67.975086 1 3 tcp 59 ---A--- 0 1.5 3.0 164 106
r 67.976401 1 3 tcp 59 ---A--- 0 1.5 3.0 164 106
+ 68 3 1 ack 40 ------- 0 3.0 1.5 152 107
- 68 3 1 ack 40 ------- 0 3.0 1.5 152 107
r 68.001213 3 1 ack 40 ------- 0 3.0 1.5 152 107
+ 68.132707 1 4 ack 59 ---A--- 0 1.2 4.2 188 108
- 68.132707 1 4 ack 59 ---A--- 0 1.2 4.2 188 108
r 68.134021 1 4 ack 59 ---A--- 0 1.2 4.2 188 108
+ 68.13416 4 1 tcp 59 ---A--- 0 4.2 1.2 84 109
- 68.13416 4 1 tcp 59 ---A--- 0 4.2 1.2 84 109
r 68.135475 4 1 tcp 59 ---A--- 0 4.2 1.2 84 109
+ 68.2 1 4 ack 40 ------- 0 1.2 4.2 207 110
- 68.2 1 4 ack 40 ------- 0 1.2 4.2 207 110
r 68.201213 1 4 ack 40 ------- 0 1.2 4.2 207 110
+ 68.931755 0 1 ack 59 ---A--- 0 0.0 1.7 84 111
- 68.931755 0 1 ack 59 ---A--- 0 0.0 1.7 84 111
r 68.93307 0 1 ack 59 ---A--- 0 0.0 1.7 84 111
+ 68.933208 1 0 tcp 59 ---A--- 0 1.7 0.0 188 112
- 68.933208 1 0 tcp 59 ---A--- 0 1.7 0.0 188 112
r 68.934523 1 0 tcp 59 ---A--- 0 1.7 0.0 188 112
+ 68.989261 1 2 ack 59 ---A--- 0 1.6 2.2 135 113
- 68.989261 1 2 ack 59 ---A--- 0 1.6 2.2 135 113
r 68.990576 1 2 ack 59 ---A--- 0 1.6 2.2 135 113
+ 68.990714 2 1 tcp 59 ---A--- 0 2.2 1.6 135 114
- 68.990714 2 1 tcp 59 ---A--- 0 2.2 1.6 135 114
r 68.992029 2 1 tcp 59 ---A--- 0 2.2 1.6 135 114
+ 69 0 1 ack 40 ------- 0 0.0 1.7 103 115
- 69 0 1 ack 40 ------- 0 0.0 1.7 103 115
+ 69 1 2 ack 40 ------- 0 1.6 2.2 154 116
- 69 1 2 ack 40 ------- 0 1.6 2.2 154 116
r 69.001213 0 1 ack 40 ------- 0 0.0 1.7 103 115
r 69.001213 1 2 ack 40 ------- 0 1.6 2.2 154 116
