+ 6.533737 0 1 tcp 40 ------- 0 0.1 1.0 0 0
- 6.533737 0 1 tcp 40 ------- 0 0.1 1.0 0 0
r 6.534951 0 1 tcp 40 ------- 0 0.1 1.0 0 0
+ 6.534951 1 0 ack 40 ------- 0 1.0 0.1 0 1
- 6.534951 1 0 ack 40 ------- 0 1.0 0.1 0 1
r 6.536164 1 0 ack 40 ------- 0 1.0 0.1 0 1
+ 6.536164 0 1 tcp 40 ------- 0 0.1 1.0 1 2
- 6.536164 0 1 tcp 40 ------- 0 0.1 1.0 1 2
+ 6.536164 0 1 tcp 40 ------- 0 0.1 1.0 1 3
+ 6.536164 0 1 tcp 85 ------- 0 0.1 1.0 1 4
- 6.536377 0 1 tcp 40 ------- 0 0.1 1.0 1 3
- 6.536591 0 1 tcp 85 ------- 0 0.1 1.0 1 4
r 6.537377 0 1 tcp 40 ------- 0 0.1 1.0 1 2
+ 6.537377 1 0 ack 40 ------- 0 1.0 0.1 1 5
- 6.537377 1 0 ack 40 ------- 0 1.0 0.1 1 5
r 6.537591 0 1 tcp 40 ------- 0 0.1 1.0 1 3
r 6.538044 0 1 tcp 85 ------- 0 0.1 1.0 1 4
r 6.538591 1 0 ack 40 ------- 0 1.0 0.1 1 5
+ 6.538591 0 1 tcp 40 ------- 0 0.1 1.0 46 6
- 6.538591 0 1 tcp 40 ------- 0 0.1 1.0 46 6
r 6.539804 0 1 tcp 40 ------- 0 0.1 1.0 46 6
+ 6.736164 0 1 tcp 85 ------- 0 0.1 1.0 1 7
- 6.736164 0 1 tcp 85 ------- 0 0.1 1.0 1 7
r 6.737617 0 1 tcp 85 ------- 0 0.1 1.0 1 7
+ 6.737617 1 0 ack 40 ------- 0 1.0 0.1 2 8
- 6.737617 1 0 ack 40 ------- 0 1.0 0.1 2 8
r 6.738831 1 0 ack 40 ------- 0 1.0 0.1 2 8
+ 6.738831 0 1 tcp 40 ------- 0 0.1 1.0 46 9
- 6.738831 0 1 tcp 40 ------- 0 0.1 1.0 46 9
r 6.740044 0 1 tcp 40 ------- 0 0.1 1.0 46 9
+ 6.740044 1 0 ack 40 ------- 0 1.0 0.1 2 10
- 6.740044 1 0 ack 40 ------- 0 1.0 0.1 2 10
r 6.741257 1 0 ack 40 ------- 0 1.0 0.1 2 10
+ 8.370034 1 0 tcp 40 ------- 0 1.2 0.0 0 11
- 8.370034 1 0 tcp 40 ------- 0 1.2 0.0 0 11
r 8.371247 1 0 tcp 40 ------- 0 1.2 0.0 0 11
+ 8.371247 0 1 ack 40 ------- 0 0.0 1.2 0 12
- 8.371247 0 1 ack 40 ------- 0 0.0 1.2 0 12
r 8.37246 0 1 ack 40 ------- 0 0.0 1.2 0 12
+ 8.37246 1 0 tcp 40 ------- 0 1.2 0.0 1 13
- 8.37246 1 0 tcp 40 ------- 0 1.2 0.0 1 13
+ 8.37246 1 0 tcp 40 ------- 0 1.2 0.0 1 14
+ 8.37246 1 0 tcp 85 ------- 0 1.2 0.0 1 15
- 8.372674 1 0 tcp 40 ------- 0 1.2 0.0 1 14
- 8.372887 1 0 tcp 85 ------- 0 1.2 0.0 1 15
r 8.373674 1 0 tcp 40 ------- 0 1.2 0.0 1 13
r 8.373887 1 0 tcp 40 ------- 0 1.2 0.0 1 14
r 8.37434 1 0 tcp 85 ------- 0 1.2 0.0 1 15
+ 8.37434 0 1 ack 85 ------- 0 0.0 1.2 1 16
- 8.37434 0 1 ack 85 ------- 0 0.0 1.2 1 16
r 8.375794 0 1 ack 85 ------- 0 0.0 1.2 1 16
+ 8.375794 1 0 tcp 59 ------- 0 1.2 0.0 46 17
- 8.375794 1 0 tcp 59 ------- 0 1.2 0.0 46 17
r 8.377108 1 0 tcp 59 ------- 0 1.2 0.0 46 17
+ 8.377108 0 1 ack 59 ------- 0 0.0 1.2 46 18
- 8.377108 0 1 ack 59 ------- 0 0.0 1.2 46 18
r 8.378423 0 1 ack 59 ------- 0 0.0 1.2 46 18
+ 8.378423 1 0 tcp 59 ------- 0 1.2 0.0 65 19
- 8.378423 1 0 tcp 59 ------- 0 1.2 0.0 65 19
r 8.379738 1 0 tcp 59 ------- 0 1.2 0.0 65 19
+ 8.379738 0 1 ack 59 ------- 0 0.0 1.2 65 20
- 8.379738 0 1 ack 59 ------- 0 0.0 1.2 65 20
r 8.381052 0 1 ack 59 ------- 0 0.0 1.2 65 20
+ 8.381052 1 0 tcp 175 ------- 0 1.2 0.0 84 21
- 8.381052 1 0 tcp 175 ------- 0 1.2 0.0 84 21
r 8.382986 1 0 tcp 175 ------- 0 1.2 0.0 84 21
+ 8.4 0 1 ack 40 ------- 0 0.0 1.2 84 22
- 8.4 0 1 ack 40 ------- 0 0.0 1.2 84 22
r 8.401213 0 1 ack 40 ------- 0 0.0 1.2 84 22
+ 51 0 1 ack 40 ------- 0 0.0 1.2 84 23
- 51 0 1 ack 40 ------- 0 0.0 1.2 84 23
r 51.001213 0 1 ack 40 ------- 0 0.0 1.2 84 23
+ 51.001213 1 0 tcp 40 ------- 0 1.2 0.0 219 24
- 51.001213 1 0 tcp 40 ------- 0 1.2 0.0 219 24
+ 51.001213 1 0 tcp 40 ------- 0 1.2 0.0 219 25
- 51.001427 1 0 tcp 40 ------- 0 1.2 0.0 219 25
r 51.002427 1 0 tcp 40 ------- 0 1.2 0.0 219 24
r 51.00264 1 0 tcp 40 ------- 0 1.2 0.0 219 25
+ 51.00264 0 1 ack 40 ------- 0 0.0 1.2 85 26
- 51.00264 0 1 ack 40 ------- 0 0.0 1.2 85 26
r 51.003853 0 1 ack 40 ------- 0 0.0 1.2 85 26
+ 56.590864 1 0 tcp 40 ------- 0 1.3 0.2 0 27
- 56.590864 1 0 tcp 40 ------- 0 1.3 0.2 0 27
r 56.592078 1 0 tcp 40 ------- 0 1.3 0.2 0 27
+ 56.592078 0 1 ack 40 ------- 0 0.2 1.3 0 28
- 56.592078 0 1 ack 40 ------- 0 0.2 1.3 0 28
r 56.593291 0 1 ack 40 ------- 0 0.2 1.3 0 28
+ 56.593291 1 0 tcp 40 ------- 0 1.3 0.2 1 29
- 56.593291 1 0 tcp 40 ------- 0 1.3 0.2 1 29
+ 56.593291 1 0 tcp 40 ------- 0 1.3 0.2 1 30
+ 56.593291 1 0 tcp 85 ------- 0 1.3 0.2 1 31
- 56.593504 1 0 tcp 40 ------- 0 1.3 0.2 1 30
- 56.593718 1 0 tcp 85 ------- 0 1.3 0.2 1 31
r 56.594504 1 0 tcp 40 ------- 0 1.3 0.2 1 29
+ 56.594504 0 1 ack 40 ------- 0 0.2 1.3 1 32
- 56.594504 0 1 ack 40 ------- 0 0.2 1.3 1 32
r 56.594718 1 0 tcp 40 ------- 0 1.3 0.2 1 30
r 56.595171 1 0 tcp 85 ------- 0 1.3 0.2 1 31
r 56.595718 0 1 ack 40 ------- 0 0.2 1.3 1 32
+ 56.595718 1 0 tcp 40 ------- 0 1.3 0.2 46 33
- 56.595718 1 0 tcp 40 ------- 0 1.3 0.2 46 33
r 56.596931 1 0 tcp 40 ------- 0 1.3 0.2 46 33
+ 56.793291 1 0 tcp 85 ------- 0 1.3 0.2 1 34
- 56.793291 1 0 tcp 85 ------- 0 1.3 0.2 1 34
r 56.794744 1 0 tcp 85 ------- 0 1.3 0.2 1 34
+ 56.794744 0 1 ack 40 ------- 0 0.2 1.3 2 35
- 56.794744 0 1 ack 40 ------- 0 0.2 1.3 2 35
r 56.795958 0 1 ack 40 ------- 0 0.2 1.3 2 35
+ 56.795958 1 0 tcp 40 ------- 0 1.3 0.2 46 36
- 56.795958 1 0 tcp 40 ------- 0 1.3 0.2 46 36
r 56.797171 1 0 tcp 40 ------- 0 1.3 0.2 46 36
+ 56.797171 0 1 ack 40 ------- 0 0.2 1.3 2 37
- 56.797171 0 1 ack 40 ------- 0 0.2 1.3 2 37
r 56.798384 0 1 ack 40 ------- 0 0.2 1.3 2 37
+ 58.218761 0 1 tcp 40 ------- 0 0.4 1.1 0 38
- 58.218761 0 1 tcp 40 ------- 0 0.4 1.1 0 38
r 58.219974 0 1 tcp 40 ------- 0 0.4 1.1 0 38
+ 58.219974 1 0 ack 40 ------- 0 1.1 0.4 0 39
- 58.219974 1 0 ack 40 ------- 0 1.1 0.4 0 39
r 58.221187 1 0 ack 40 ------- 0 1.1 0.4 0 39
+ 58.221187 0 1 tcp 40 ------- 0 0.4 1.1 1 40
- 58.221187 0 1 tcp 40 ------- 0 0.4 1.1 1 40
+ 58.221187 0 1 tcp 40 ------- 0 0.4 1.1 1 41
+ 58.221187 0 1 tcp 85 ------- 0 0.4 1.1 1 42
- 58.221401 0 1 tcp 40 ------- 0 0.4 1.1 1 41
- 58.221614 0 1 tcp 85 ------- 0 0.4 1.1 1 42
r 58.222401 0 1 tcp 40 ------- 0 0.4 1.1 1 40
r 58.222614 0 1 tcp 40 ------- 0 0.4 1.1 1 41
r 58.223067 0 1 tcp 85 ------- 0 0.4 1.1 1 42
+ 58.223067 1 0 ack 85 ------- 0 1.1 0.4 1 43
- 58.223067 1 0 ack 85 ------- 0 1.1 0.4 1 43
r 58.224521 1 0 ack 85 ------- 0 1.1 0.4 1 43
+ 58.224521 0 1 tcp 59 ------- 0 0.4 1.1 46 44
- 58.224521 0 1 tcp 59 ------- 0 0.4 1.1 46 44
r 58.225835 0 1 tcp 59 ------- 0 0.4 1.1 46 44
+ 58.225835 1 0 ack 59 ------- 0 1.1 0.4 46 45
- 58.225835 1 0 ack 59 ------- 0 1.1 0.4 46 45
r 58.22715 1 0 ack 59 ------- 0 1.1 0.4 46 45
+ 58.22715 0 1 tcp 59 ------- 0 0.4 1.1 65 46
- 58.22715 0 1 tcp 59 ------- 0 0.4 1.1 65 46
r 58.228465 0 1 tcp 59 ------- 0 0.4 1.1 65 46
+ 58.228465 1 0 ack 194 ------- 0 1.1 0.4 65 47
- 58.228465 1 0 ack 194 ------- 0 1.1 0.4 65 47
r 58.230499 1 0 ack 194 ------- 0 1.1 0.4 65 47
+ 58.3 0 1 tcp 40 ------- 0 0.4 1.1 84 48
- 58.3 0 1 tcp 40 ------- 0 0.4 1.1 84 48
r 58.301213 0 1 tcp 40 ------- 0 0.4 1.1 84 48
